##############################################################################
###      FullProf-generated CIF output file  (version: February 2008)      ###
###      Template of CIF submission form for structure report              ###
##############################################################################
 
# This file has been generated using FullProf.2k taking one example of 
# structure report provided by Acta Cryst. It is given as a 'template' with 
# filled structural items. Many other items are left unfilled and it is the  
# responsibility of the user to properly fill or suppress them. In principle 
# all question marks '?' should be replaced by the appropriate text or 
# numerical value depending on the kind of CIF item. 
# See the document: cif_core.dic (URL: http://www.iucr.org) for details. 
 
# Please notify any error or suggestion to: 
#           Juan Rodriguez-Carvajal (jrc@ill.eu)
# Improvements will be progressively added as needed.
 
#=============================================================================
 data_global
#=============================================================================
 
# PROCESSING SUMMARY (IUCr Office Use Only)
 
_journal_data_validation_number      ?
 
_journal_date_recd_electronic        ?
_journal_date_to_coeditor            ?
_journal_date_from_coeditor          ?
_journal_date_accepted               ?
_journal_date_printers_first         ?
_journal_date_printers_final         ?
_journal_date_proofs_out             ?
_journal_date_proofs_in              ?
_journal_coeditor_name               ?
_journal_coeditor_code               ?
_journal_coeditor_notes
; ?
;
_journal_techeditor_code             ?
_journal_techeditor_notes
; ?
;
_journal_coden_ASTM                  ?
_journal_name_full                   ?
_journal_year                        ?
_journal_volume                      ?
_journal_issue                       ?
_journal_page_first                  ?
_journal_page_last                   ?
_journal_paper_category              ?
_journal_suppl_publ_number           ?
_journal_suppl_publ_pages            ?
 
#=============================================================================
 
# 1. SUBMISSION DETAILS
 
_publ_contact_author_name            Yaroslav Filinchuk, Torben R. Jensen
_publ_contact_author_address           
; ?
;
_publ_contact_author_email           yaroslav.filinchuk@uclouvain.be, trj@chem.au.dk
_publ_contact_author_phone           Torben R. Jensen +45 8942 3894
;
;
 
_publ_requested_journal              Chemistry of Materials dx.doi.org/10.1021/cm300792t
_publ_requested_coeditor_name        ?
_publ_requested_category             ?   # Acta C: one of CI/CM/CO/FI/FM/FO
 
 
# Definition of non standard CIF items (Reliability indices used in FULLPROF) 
 
loop_ 
_publ_manuscript_incl_extra_item
_publ_manuscript_incl_extra_info
_publ_manuscript_incl_extra_defn
#      Name                               Explanation                 Standard?
#     ------                              -----------                 ---------
 '_pd_proc_ls_prof_cR_factor'    'Prof. R-factor CORRECTED for background'   no
 '_pd_proc_ls_prof_cwR_factor'   'wProf.R-factor CORRECTED for background'   no
 '_pd_proc_ls_prof_cwR_expected' 'wProf.Expected CORRECTED for background'   no
 '_pd_proc_ls_prof_chi2'         'Chi-square for all considered points'      no
 '_pd_proc_ls_prof_echi2'        'Chi-2 for points with Bragg contribution'  no
#=============================================================================
 
# 3. TITLE AND AUTHOR LIST
 
_publ_section_title  LiCe(BH4)3Cl, a New Lithium-Ion Conductor and Hydrogen Storage Material with Isolated Tetranuclear Anionic Clusters
;
;
_publ_section_title_footnote
;
;
 
# The loop structure below should contain the names and addresses of all 
# authors, in the required order of publication. Repeat as necessary.
 
loop_
    _publ_author_name
    _publ_author_footnote
    _publ_author_address
Ley, Morten B.
Center for Materials Crystallography (CMC), Interdisciplinary Nanoscience Center (iNANO), and Department of Chemistry, Aarhus University,
Langelandsgade 140, DK-8000 Aarhus C, Denmark
Ravnsbæk, Dorthe B.
Center for Materials Crystallography (CMC), Interdisciplinary Nanoscience Center (iNANO), and Department of Chemistry, Aarhus University,
Langelandsgade 140, DK-8000 Aarhus C, Denmark
Filinchuk, Yaroslav
Institute of Condensed Matter and Nanosciences, Université Catholique de Louvain, Place L. Pasteur 1, B-1348, Louvain-la-Neuve,
Belgium
Lee, Young-Su
High Temperature Energy Materials Research Center, Korea Institute of Science and Technology, Seoul 136-791, Republic of Korea
Janot, Raphaêl
Laboratoire de Re´activite´ et Chimie des Solides, UMR 6007 CNRS, Université de Picardie - Jules Verne, Amiens Cedex, France
Cho, Young Whan
High Temperature Energy Materials Research Center, Korea Institute of Science and Technology, Seoul 136-791, Republic of Korea
Skibsted, Jørgen
Interdisciplinary Nanoscience Center (iNANO), Instrument Centre for Solid-State
NMR Spectroscopy, and Department of Chemistry, Aarhus University,
Langelandsgade 140, DK-8000 Aarhus C, Denmark
Jensen, Torben R.
Center for Materials Crystallography (CMC), Interdisciplinary Nanoscience Center (iNANO), and Department of Chemistry, Aarhus University,
Langelandsgade 140, DK-8000 Aarhus C, Denmark                                 
#=============================================================================
 
# 4. TEXT
 
_publ_section_synopsis
;  ?
;
_publ_section_abstract
; ?
;          
_publ_section_comment
; ?
;
_publ_section_exptl_prep      # Details of the preparation of the sample(s)
                              # should be given here. 
; ?
;
_publ_section_exptl_refinement
; ?
;
_publ_section_references
; ?
;
_publ_section_figure_captions
; ?
;
_publ_section_acknowledgements
; ?
;
 
#=============================================================================
 
#=============================================================================
# If more than one structure is reported, the remaining sections should be 
# completed per structure. For each data set, replace the '?' in the
# data_? line below by a unique identifier.
 
data_LiCeCl(BH4)3                  
 
#=============================================================================
 
# 5. CHEMICAL DATA
 
_chemical_name_systematic 
Lithium Cerium Tetrahydrido borate chloride
;
_chemical_name_common             Lithium Cerium Borohydride Chloride
_chemical_formula_moiety          LiCe(BH4)3Cl
_chemical_formula_structural      ?
_chemical_formula_analytical      ?
_chemical_formula_iupac           ?
_chemical_formula_sum             ?
_chemical_formula_weight          ?
_chemical_melting_point           ?
_chemical_compound_source         ?       # for minerals and 
                                          # natural products
 
loop_
    _atom_type_symbol               
    _atom_type_scat_Cromer_Mann_a1 
    _atom_type_scat_Cromer_Mann_b1 
    _atom_type_scat_Cromer_Mann_a2 
    _atom_type_scat_Cromer_Mann_b2 
    _atom_type_scat_Cromer_Mann_a3 
    _atom_type_scat_Cromer_Mann_b3 
    _atom_type_scat_Cromer_Mann_a4 
    _atom_type_scat_Cromer_Mann_b4 
    _atom_type_scat_Cromer_Mann_c 
    _atom_type_scat_dispersion_real 
    _atom_type_scat_dispersion_imag 
    _atom_type_scat_source          
ce    21.16710   2.81219  19.76950   0.22684  11.85130  17.60830
       3.33049 127.11300   1.86264  -0.56400   2.63200
 International_Tables_for_Crystallography_Vol.C(1991)_Tables_6.1.1.4_and_6.1.1.5
b      2.05450  23.21850   1.33260   1.02100   1.09790  60.34980
       0.70680   0.14030  -0.19320   0.00000   0.00100
 International_Tables_for_Crystallography_Vol.C(1991)_Tables_6.1.1.4_and_6.1.1.5
cl    11.46040   0.01040   7.19640   1.16620   6.25560  18.51940
       1.64550  47.77840  -9.55740   0.13200   0.15900
 International_Tables_for_Crystallography_Vol.C(1991)_Tables_6.1.1.4_and_6.1.1.5
li     1.12820   3.95460   0.75080   1.05240   0.61750  85.39050
       0.46530 168.26100   0.03770   0.00000   0.00000
 International_Tables_for_Crystallography_Vol.C(1991)_Tables_6.1.1.4_and_6.1.1.5
h      0.49300  10.51090   0.32291  26.12570   0.14019   3.14236
       0.04081  57.79970   0.00304   0.00000   0.00000
 International_Tables_for_Crystallography_Vol.C(1991)_Tables_6.1.1.4_and_6.1.1.5
 
#=============================================================================
 
# 6. POWDER SPECIMEN AND CRYSTAL DATA
 
_symmetry_cell_setting                Cubic
_symmetry_space_group_name_H-M       'I -4 3 m'
_symmetry_space_group_name_Hall      'I -4 2 3'
 
loop_
    _symmetry_equiv_pos_as_xyz   #<--must include 'x,y,z'
'x,y,z'
'x,-y,-z'
'-x,y,-z'
'-x,-y,z'
'y,z,x'
'-y,-z,x'
'y,-z,-x'
'-y,z,-x'
'z,x,y'
'-z,x,-y'
'-z,-x,y'
'z,-x,-y'
'y,x,z'
'-y,x,-z'
'y,-x,-z'
'-y,-x,z'
'z,y,x'
'-z,-y,x'
'-z,y,-x'
'z,-y,-x'
'x,z,y'
'x,-z,-y'
'-x,-z,y'
'-x,z,-y'
'x+1/2,y+1/2,z+1/2'
'x+1/2,-y+1/2,-z+1/2'
'-x+1/2,y+1/2,-z+1/2'
'-x+1/2,-y+1/2,z+1/2'
'y+1/2,z+1/2,x+1/2'
'-y+1/2,-z+1/2,x+1/2'
'y+1/2,-z+1/2,-x+1/2'
'-y+1/2,z+1/2,-x+1/2'
'z+1/2,x+1/2,y+1/2'
'-z+1/2,x+1/2,-y+1/2'
'-z+1/2,-x+1/2,y+1/2'
'z+1/2,-x+1/2,-y+1/2'
'y+1/2,x+1/2,z+1/2'
'-y+1/2,x+1/2,-z+1/2'
'y+1/2,-x+1/2,-z+1/2'
'-y+1/2,-x+1/2,z+1/2'
'z+1/2,y+1/2,x+1/2'
'-z+1/2,-y+1/2,x+1/2'
'-z+1/2,y+1/2,-x+1/2'
'z+1/2,-y+1/2,-x+1/2'
'x+1/2,z+1/2,y+1/2'
'x+1/2,-z+1/2,-y+1/2'
'-x+1/2,-z+1/2,y+1/2'
'-x+1/2,z+1/2,-y+1/2'
 
_cell_length_a                       11.72041(19)
_cell_length_b                       11.72041(19)
_cell_length_c                       11.72041(19)
_cell_angle_alpha                    90.00000
_cell_angle_beta                     90.00000
_cell_angle_gamma                    90.00000
_cell_volume                         1610.01(5)
_cell_formula_units_Z                ?
_cell_measurement_temperature        ?
_cell_special_details
; ?
;
# The next three fields give the specimen dimensions in mm.  The equatorial
# plane contains the incident and diffracted beam.
 
_pd_spec_size_axial               ?       # perpendicular to 
                                          # equatorial plane
_pd_spec_size_equat               ?       # parallel to 
                                          # scattering vector
                                          # in transmission
_pd_spec_size_thick               ?       # parallel to 
                                          # scattering vector
                                          # in reflection
 
# The next five fields are character fields that describe the specimen.
 
_pd_spec_mounting                         # This field should be
                                          # used to give details of the 
                                          # container.
; ?
;
_pd_spec_mount_mode               ?       # options are 'reflection'
                                          # or 'transmission'
_pd_spec_shape                    ?       # options are 'cylinder' 
                                          # 'flat_sheet' or 'irregular'
_pd_char_particle_morphology      ?
_pd_char_colour                   ?       # use ICDD colour descriptions
 
# The following three fields describe the preparation of the specimen.
# The cooling rate is in K/min.  The pressure at which the sample was 
# prepared is in kPa.  The temperature of preparation is in K.        
 
_pd_prep_cool_rate                ?
_pd_prep_pressure                 ?
_pd_prep_temperature              ?
 
# The next four fields are normally only needed for transmission experiments.
 
_exptl_absorpt_coefficient_mu        ?
_exptl_absorpt_correction_type       ?
_exptl_absorpt_process_details       ?
_exptl_absorpt_correction_T_min      ?
_exptl_absorpt_correction_T_max      ?
 
#=============================================================================
 
# 7. EXPERIMENTAL DATA
 
_exptl_special_details
; ?
;
 
# The following item is used to identify the equipment used to record 
# the powder pattern when the diffractogram was measured at a laboratory 
# other than the authors' home institution, e.g. when neutron or synchrotron
# radiation is used.
 
_pd_instr_location
; ?
;
_pd_calibration_special_details           # description of the method used
                                          # to calibrate the instrument
; ?
;
 
_diffrn_ambient_temperature          ?
_diffrn_source                   ? # Put here: 'rotating-anode X-ray tube' or similar 
_diffrn_radiation_type           'X-ray' 
_diffrn_source_target            ? # Put here the chemical symbol of the anode
 
_diffrn_radiation_monochromator      ?
_diffrn_measurement_device_type      ?
_diffrn_measurement_method           ?
_diffrn_detector_area_resol_mean     ?   # Not in version 2.0.1
_diffrn_detector                     ?
_diffrn_detector_type                ?   # make or model of detector
_pd_meas_scan_method                 ?   # options are 'step', 'cont',
                                         # 'tof', 'fixed' or
                                         # 'disp' (= dispersive)
_pd_meas_special_details
;  ?
;
 
#  The following four items give details of the measured (not processed)
#  powder pattern.  Angles are in degrees.
 
_pd_meas_number_of_points         1197
_pd_meas_2theta_range_min         2.17205
_pd_meas_2theta_range_max         34.84836
_pd_meas_2theta_range_inc         0.027344
 
#=============================================================================
 
# 8. REFINEMENT DATA
 
_refine_special_details
; ?
;
 
# Use the next field to give any special details about the fitting of the
# powder pattern.
 
_pd_proc_ls_special_details
; ?
;
 
# The next three items are given as text.
 
_pd_proc_ls_profile_function      ?
_pd_proc_ls_background_function   ?
_pd_proc_ls_pref_orient_corr
; ?
;
 
#  The following profile R-factors are NOT CORRECTED for background
#  The sum is extended to all non-excluded points.
#  These are the current CIF standard
 
_pd_proc_ls_prof_R_factor                2.6198
_pd_proc_ls_prof_wR_factor               3.3194
_pd_proc_ls_prof_wR_expected             0.0542
 
#  The following profile R-factors are CORRECTED for background
#  The sum is extended to all non-excluded points.
#  These items are not in the current CIF standard, but are defined above
 
_pd_proc_ls_prof_cR_factor                5.0924
_pd_proc_ls_prof_cwR_factor               5.9754
_pd_proc_ls_prof_cwR_expected             0.0975
 
#  The following items are not in the CIF standard, but are defined above
 
_pd_proc_ls_prof_chi2              3755.8647
_pd_proc_ls_prof_echi2             3755.8647
 
#  Items related to LS refinement
 
_refine_ls_R_I_factor                 2.5224
_refine_ls_number_reflns                    90
_refine_ls_number_parameters                44
_refine_ls_number_restraints                 0
 
# The following four items apply to angular dispersive measurements.
# 2theta minimum, maximum and increment (in degrees) are for the 
# intensities used in the refinement.
 
_pd_proc_2theta_range_min                2.1929
_pd_proc_2theta_range_max               34.8692
_pd_proc_2theta_range_inc              0.027344
_pd_proc_wavelength                    0.709637
 
_pd_block_diffractogram_id        ?  # The id used for the block containing
                                     # the powder pattern profile (section 11)
 
# Give appropriate details in the next two text fields.
 
_pd_proc_info_excluded_regions    ?
_pd_proc_info_data_reduction      ?
 
# The following items are used to identify the programs used.
 
_computing_data_collection           ?
_computing_structure_solution        ?
_computing_structure_refinement      FULLPROF
_computing_molecular_graphics        ?
_computing_publication_material      ?
 
#=============================================================================
 
# 9. ATOMIC COORDINATES AND DISPLACEMENT PARAMETERS
 
loop_
    _atom_site_label
    _atom_site_fract_x
    _atom_site_fract_y
    _atom_site_fract_z
    _atom_site_U_iso_or_equiv
    _atom_site_occupancy
    _atom_site_adp_type              # Not in version 2.0.1
    _atom_site_type_symbol
 Ce1   0.64127(7)  0.64127(7)  0.64127(7)  0.0389(5)   1.00000    Uiso CE  
 B1   0.1216(18)  0.1216(18)  0.3735(17)  0.045(4)    1.00000    Uiso B   
 Cl1   0.8934(5)   0.8934(5)   0.8934(5)   0.048(2)    1.00000    Uiso CL  
 Li3   0.25000     0.50000     0.00000     0.06333     0.49(5)    Uiso LI  
 H1   0.1463(18)  0.0258(18)  0.3299(17)  0.07599     1.00000    Uiso H   
 H2   0.1118(18)  0.1118(18)  0.4777(17)  0.07599     1.00000    Uiso H   
 H4   0.1889(18)  0.1889(18)  0.3479(17)  0.07599     1.00000    Uiso H   
 
# Note: if the displacement parameters were refined anisotropically
# the U matrices should be given as for single-crystal studies.
 
#=============================================================================
 
# 10. DISTANCES AND ANGLES / MOLECULAR GEOMETRY 
 
_geom_special_details                ?
 
loop_
    _geom_bond_atom_site_label_1  
    _geom_bond_atom_site_label_2  
    _geom_bond_site_symmetry_1    
    _geom_bond_site_symmetry_2    
    _geom_bond_distance           
    _geom_bond_publ_flag          
    ?   ?   ?   ?   ?   ?
 
loop_
    _geom_contact_atom_site_label_1 
    _geom_contact_atom_site_label_2 
    _geom_contact_distance          
    _geom_contact_site_symmetry_1   
    _geom_contact_site_symmetry_2   
    _geom_contact_publ_flag         
    ?   ?   ?   ?   ?   ?
 
loop_
_geom_angle_atom_site_label_1 
_geom_angle_atom_site_label_2 
_geom_angle_atom_site_label_3 
_geom_angle_site_symmetry_1   
_geom_angle_site_symmetry_2   
_geom_angle_site_symmetry_3   
_geom_angle                   
_geom_angle_publ_flag         
?   ?   ?   ?   ?   ?   ?   ?
 
loop_
_geom_torsion_atom_site_label_1 
_geom_torsion_atom_site_label_2 
_geom_torsion_atom_site_label_3 
_geom_torsion_atom_site_label_4 
_geom_torsion_site_symmetry_1   
_geom_torsion_site_symmetry_2   
_geom_torsion_site_symmetry_3   
_geom_torsion_site_symmetry_4   
_geom_torsion                   
_geom_torsion_publ_flag         
?   ?   ?   ?   ?   ?   ?   ?   ?   ?
 
loop_
_geom_hbond_atom_site_label_D 
_geom_hbond_atom_site_label_H 
_geom_hbond_atom_site_label_A 
_geom_hbond_site_symmetry_D   
_geom_hbond_site_symmetry_H   
_geom_hbond_site_symmetry_A   
_geom_hbond_distance_DH       
_geom_hbond_distance_HA       
_geom_hbond_distance_DA       
_geom_hbond_angle_DHA         
_geom_hbond_publ_flag         
?   ?   ?   ?   ?   ?   ?   ?   ?   ?   ?
 
#=============================================================================
 
#=============================================================================
# Additional structures (last six sections and associated data_? identifiers) 
# may be added at this point.                                                 
#=============================================================================
 
data_data_LithiumChloride          
 
#=============================================================================
 
# 5. CHEMICAL DATA
 
_chemical_name_systematic
; ?
;
_chemical_name_common             ?
_chemical_formula_moiety          ?
_chemical_formula_structural      ?
_chemical_formula_analytical      ?
_chemical_formula_iupac           ?
_chemical_formula_sum             ?
_chemical_formula_weight          ?
_chemical_melting_point           ?
_chemical_compound_source         ?       # for minerals and 
                                          # natural products
 
loop_
    _atom_type_symbol               
    _atom_type_scat_Cromer_Mann_a1 
    _atom_type_scat_Cromer_Mann_b1 
    _atom_type_scat_Cromer_Mann_a2 
    _atom_type_scat_Cromer_Mann_b2 
    _atom_type_scat_Cromer_Mann_a3 
    _atom_type_scat_Cromer_Mann_b3 
    _atom_type_scat_Cromer_Mann_a4 
    _atom_type_scat_Cromer_Mann_b4 
    _atom_type_scat_Cromer_Mann_c 
    _atom_type_scat_dispersion_real 
    _atom_type_scat_dispersion_imag 
    _atom_type_scat_source          
 
#=============================================================================
 
# 6. POWDER SPECIMEN AND CRYSTAL DATA
 
_symmetry_cell_setting                Cubic
_symmetry_space_group_name_H-M       'F m -3 m'
_symmetry_space_group_name_Hall      '-F 4 2 3'
 
loop_
    _symmetry_equiv_pos_as_xyz   #<--must include 'x,y,z'
'x,y,z'
'x,-y,-z'
'-x,y,-z'
'-x,-y,z'
'y,z,x'
'-y,-z,x'
'y,-z,-x'
'-y,z,-x'
'z,x,y'
'-z,x,-y'
'-z,-x,y'
'z,-x,-y'
'y,x,z'
'-y,x,-z'
'y,-x,-z'
'-y,-x,z'
'z,y,x'
'-z,-y,x'
'-z,y,-x'
'z,-y,-x'
'x,z,y'
'x,-z,-y'
'-x,-z,y'
'-x,z,-y'
'-x,-y,-z'
'-x,y,z'
'x,-y,z'
'x,y,-z'
'-y,-z,-x'
'y,z,-x'
'-y,z,x'
'y,-z,x'
'-z,-x,-y'
'z,-x,y'
'z,x,-y'
'-z,x,y'
'-y,-x,-z'
'y,-x,z'
'-y,x,z'
'y,x,-z'
'-z,-y,-x'
'z,y,-x'
'z,-y,x'
'-z,y,x'
'-x,-z,-y'
'-x,z,y'
'x,z,-y'
'x,-z,y'
'x+1/2,y+1/2,z'
'x+1/2,-y+1/2,-z'
'-x+1/2,y+1/2,-z'
'-x+1/2,-y+1/2,z'
'y+1/2,z+1/2,x'
'-y+1/2,-z+1/2,x'
'y+1/2,-z+1/2,-x'
'-y+1/2,z+1/2,-x'
'z+1/2,x+1/2,y'
'-z+1/2,x+1/2,-y'
'-z+1/2,-x+1/2,y'
'z+1/2,-x+1/2,-y'
'y+1/2,x+1/2,z'
'-y+1/2,x+1/2,-z'
'y+1/2,-x+1/2,-z'
'-y+1/2,-x+1/2,z'
'z+1/2,y+1/2,x'
'-z+1/2,-y+1/2,x'
'-z+1/2,y+1/2,-x'
'z+1/2,-y+1/2,-x'
'x+1/2,z+1/2,y'
'x+1/2,-z+1/2,-y'
'-x+1/2,-z+1/2,y'
'-x+1/2,z+1/2,-y'
'-x+1/2,-y+1/2,-z'
'-x+1/2,y+1/2,z'
'x+1/2,-y+1/2,z'
'x+1/2,y+1/2,-z'
'-y+1/2,-z+1/2,-x'
'y+1/2,z+1/2,-x'
'-y+1/2,z+1/2,x'
'y+1/2,-z+1/2,x'
'-z+1/2,-x+1/2,-y'
'z+1/2,-x+1/2,y'
'z+1/2,x+1/2,-y'
'-z+1/2,x+1/2,y'
'-y+1/2,-x+1/2,-z'
'y+1/2,-x+1/2,z'
'-y+1/2,x+1/2,z'
'y+1/2,x+1/2,-z'
'-z+1/2,-y+1/2,-x'
'z+1/2,y+1/2,-x'
'z+1/2,-y+1/2,x'
'-z+1/2,y+1/2,x'
'-x+1/2,-z+1/2,-y'
'-x+1/2,z+1/2,y'
'x+1/2,z+1/2,-y'
'x+1/2,-z+1/2,y'
'x+1/2,y,z+1/2'
'x+1/2,-y,-z+1/2'
'-x+1/2,y,-z+1/2'
'-x+1/2,-y,z+1/2'
'y+1/2,z,x+1/2'
'-y+1/2,-z,x+1/2'
'y+1/2,-z,-x+1/2'
'-y+1/2,z,-x+1/2'
'z+1/2,x,y+1/2'
'-z+1/2,x,-y+1/2'
'-z+1/2,-x,y+1/2'
'z+1/2,-x,-y+1/2'
'y+1/2,x,z+1/2'
'-y+1/2,x,-z+1/2'
'y+1/2,-x,-z+1/2'
'-y+1/2,-x,z+1/2'
'z+1/2,y,x+1/2'
'-z+1/2,-y,x+1/2'
'-z+1/2,y,-x+1/2'
'z+1/2,-y,-x+1/2'
'x+1/2,z,y+1/2'
'x+1/2,-z,-y+1/2'
'-x+1/2,-z,y+1/2'
'-x+1/2,z,-y+1/2'
'-x+1/2,-y,-z+1/2'
'-x+1/2,y,z+1/2'
'x+1/2,-y,z+1/2'
'x+1/2,y,-z+1/2'
'-y+1/2,-z,-x+1/2'
'y+1/2,z,-x+1/2'
'-y+1/2,z,x+1/2'
'y+1/2,-z,x+1/2'
'-z+1/2,-x,-y+1/2'
'z+1/2,-x,y+1/2'
'z+1/2,x,-y+1/2'
'-z+1/2,x,y+1/2'
'-y+1/2,-x,-z+1/2'
'y+1/2,-x,z+1/2'
'-y+1/2,x,z+1/2'
'y+1/2,x,-z+1/2'
'-z+1/2,-y,-x+1/2'
'z+1/2,y,-x+1/2'
'z+1/2,-y,x+1/2'
'-z+1/2,y,x+1/2'
'-x+1/2,-z,-y+1/2'
'-x+1/2,z,y+1/2'
'x+1/2,z,-y+1/2'
'x+1/2,-z,y+1/2'
'x,y+1/2,z+1/2'
'x,-y+1/2,-z+1/2'
'-x,y+1/2,-z+1/2'
'-x,-y+1/2,z+1/2'
'y,z+1/2,x+1/2'
'-y,-z+1/2,x+1/2'
'y,-z+1/2,-x+1/2'
'-y,z+1/2,-x+1/2'
'z,x+1/2,y+1/2'
'-z,x+1/2,-y+1/2'
'-z,-x+1/2,y+1/2'
'z,-x+1/2,-y+1/2'
'y,x+1/2,z+1/2'
'-y,x+1/2,-z+1/2'
'y,-x+1/2,-z+1/2'
'-y,-x+1/2,z+1/2'
'z,y+1/2,x+1/2'
'-z,-y+1/2,x+1/2'
'-z,y+1/2,-x+1/2'
'z,-y+1/2,-x+1/2'
'x,z+1/2,y+1/2'
'x,-z+1/2,-y+1/2'
'-x,-z+1/2,y+1/2'
'-x,z+1/2,-y+1/2'
'-x,-y+1/2,-z+1/2'
'-x,y+1/2,z+1/2'
'x,-y+1/2,z+1/2'
'x,y+1/2,-z+1/2'
'-y,-z+1/2,-x+1/2'
'y,z+1/2,-x+1/2'
'-y,z+1/2,x+1/2'
'y,-z+1/2,x+1/2'
'-z,-x+1/2,-y+1/2'
'z,-x+1/2,y+1/2'
'z,x+1/2,-y+1/2'
'-z,x+1/2,y+1/2'
'-y,-x+1/2,-z+1/2'
'y,-x+1/2,z+1/2'
'-y,x+1/2,z+1/2'
'y,x+1/2,-z+1/2'
'-z,-y+1/2,-x+1/2'
'z,y+1/2,-x+1/2'
'z,-y+1/2,x+1/2'
'-z,y+1/2,x+1/2'
'-x,-z+1/2,-y+1/2'
'-x,z+1/2,y+1/2'
'x,z+1/2,-y+1/2'
'x,-z+1/2,y+1/2'
 
_cell_length_a                       5.17412(15)
_cell_length_b                       5.17412(15)
_cell_length_c                       5.17412(15)
_cell_angle_alpha                    90.00000
_cell_angle_beta                     90.00000
_cell_angle_gamma                    90.00000
_cell_volume                         138.519(7)
_cell_formula_units_Z                ?
_cell_measurement_temperature        ?
_cell_special_details
; ?
;
# The next three fields give the specimen dimensions in mm.  The equatorial
# plane contains the incident and diffracted beam.
 
_pd_spec_size_axial               ?       # perpendicular to 
                                          # equatorial plane
_pd_spec_size_equat               ?       # parallel to 
                                          # scattering vector
                                          # in transmission
_pd_spec_size_thick               ?       # parallel to 
                                          # scattering vector
                                          # in reflection
 
# The next five fields are character fields that describe the specimen.
 
_pd_spec_mounting                         # This field should be
                                          # used to give details of the 
                                          # container.
; ?
;
_pd_spec_mount_mode               ?       # options are 'reflection'
                                          # or 'transmission'
_pd_spec_shape                    ?       # options are 'cylinder' 
                                          # 'flat_sheet' or 'irregular'
_pd_char_particle_morphology      ?
_pd_char_colour                   ?       # use ICDD colour descriptions
 
# The following three fields describe the preparation of the specimen.
# The cooling rate is in K/min.  The pressure at which the sample was 
# prepared is in kPa.  The temperature of preparation is in K.        
 
_pd_prep_cool_rate                ?
_pd_prep_pressure                 ?
_pd_prep_temperature              ?
 
# The next four fields are normally only needed for transmission experiments.
 
_exptl_absorpt_coefficient_mu        ?
_exptl_absorpt_correction_type       ?
_exptl_absorpt_process_details       ?
_exptl_absorpt_correction_T_min      ?
_exptl_absorpt_correction_T_max      ?
 
#=============================================================================
 
# 7. EXPERIMENTAL DATA
 
_exptl_special_details
; ?
;
 
# The following item is used to identify the equipment used to record 
# the powder pattern when the diffractogram was measured at a laboratory 
# other than the authors' home institution, e.g. when neutron or synchrotron
# radiation is used.
 
_pd_instr_location
; ?
;
_pd_calibration_special_details           # description of the method used
                                          # to calibrate the instrument
; ?
;
 
_diffrn_ambient_temperature          ?
_diffrn_source                   ? # Put here: 'rotating-anode X-ray tube' or similar 
_diffrn_radiation_type           'X-ray' 
_diffrn_source_target            ? # Put here the chemical symbol of the anode
 
_diffrn_radiation_monochromator      ?
_diffrn_measurement_device_type      ?
_diffrn_measurement_method           ?
_diffrn_detector_area_resol_mean     ?   # Not in version 2.0.1
_diffrn_detector                     ?
_diffrn_detector_type                ?   # make or model of detector
_pd_meas_scan_method                 ?   # options are 'step', 'cont',
                                         # 'tof', 'fixed' or
                                         # 'disp' (= dispersive)
_pd_meas_special_details
;  ?
;
 
#  The following four items give details of the measured (not processed)
#  powder pattern.  Angles are in degrees.
 
_pd_meas_number_of_points         0
_pd_meas_2theta_range_min         2.17205
_pd_meas_2theta_range_max         34.84836
_pd_meas_2theta_range_inc         0.027344
 
#=============================================================================
 
# 8. REFINEMENT DATA
 
_refine_special_details
; ?
;
 
# Use the next field to give any special details about the fitting of the
# powder pattern.
 
_pd_proc_ls_special_details
; ?
;
 
# The next three items are given as text.
 
_pd_proc_ls_profile_function      ?
_pd_proc_ls_background_function   ?
_pd_proc_ls_pref_orient_corr
; ?
;
 
#  The following profile R-factors are NOT CORRECTED for background
#  The sum is extended to all non-excluded points.
#  These are the current CIF standard
 
_pd_proc_ls_prof_R_factor                2.6198
_pd_proc_ls_prof_wR_factor               3.3194
_pd_proc_ls_prof_wR_expected             0.0542
 
#  The following profile R-factors are CORRECTED for background
#  The sum is extended to all non-excluded points.
#  These items are not in the current CIF standard, but are defined above
 
_pd_proc_ls_prof_cR_factor                5.0924
_pd_proc_ls_prof_cwR_factor               5.9754
_pd_proc_ls_prof_cwR_expected             0.0975
 
#  The following items are not in the CIF standard, but are defined above
 
_pd_proc_ls_prof_chi2              3755.8647
_pd_proc_ls_prof_echi2             3755.8647
 
#  Items related to LS refinement
 
_refine_ls_R_I_factor                 1.2140
_refine_ls_number_reflns                     8
_refine_ls_number_parameters                44
_refine_ls_number_restraints                 0
 
# The following four items apply to angular dispersive measurements.
# 2theta minimum, maximum and increment (in degrees) are for the 
# intensities used in the refinement.
 
_pd_proc_2theta_range_min                2.1929
_pd_proc_2theta_range_max               34.8692
_pd_proc_2theta_range_inc              0.027344
_pd_proc_wavelength                    0.709637
 
_pd_block_diffractogram_id        ?  # The id used for the block containing
                                     # the powder pattern profile (section 11)
 
# Give appropriate details in the next two text fields.
 
_pd_proc_info_excluded_regions    ?
_pd_proc_info_data_reduction      ?
 
# The following items are used to identify the programs used.
 
_computing_data_collection           ?
_computing_structure_solution        ?
_computing_structure_refinement      FULLPROF
_computing_molecular_graphics        ?
_computing_publication_material      ?
 
#=============================================================================
 
# 9. ATOMIC COORDINATES AND DISPLACEMENT PARAMETERS
 
loop_
    _atom_site_label
    _atom_site_fract_x
    _atom_site_fract_y
    _atom_site_fract_z
    _atom_site_U_iso_or_equiv
    _atom_site_occupancy
    _atom_site_adp_type              # Not in version 2.0.1
    _atom_site_type_symbol
 Li1   0.00000     0.00000     0.00000     0.047(5)    1.00000    Uiso Li  
 Cl1   0.50000     0.50000     0.50000     0.0244(16)  1.00000    Uiso Cl  
 
# Note: if the displacement parameters were refined anisotropically
# the U matrices should be given as for single-crystal studies.
 
#=============================================================================
 
# 10. DISTANCES AND ANGLES / MOLECULAR GEOMETRY 
 
_geom_special_details                ?
 
loop_
    _geom_bond_atom_site_label_1  
    _geom_bond_atom_site_label_2  
    _geom_bond_site_symmetry_1    
    _geom_bond_site_symmetry_2    
    _geom_bond_distance           
    _geom_bond_publ_flag          
    ?   ?   ?   ?   ?   ?
 
loop_
    _geom_contact_atom_site_label_1 
    _geom_contact_atom_site_label_2 
    _geom_contact_distance          
    _geom_contact_site_symmetry_1   
    _geom_contact_site_symmetry_2   
    _geom_contact_publ_flag         
    ?   ?   ?   ?   ?   ?
 
loop_
_geom_angle_atom_site_label_1 
_geom_angle_atom_site_label_2 
_geom_angle_atom_site_label_3 
_geom_angle_site_symmetry_1   
_geom_angle_site_symmetry_2   
_geom_angle_site_symmetry_3   
_geom_angle                   
_geom_angle_publ_flag         
?   ?   ?   ?   ?   ?   ?   ?
 
loop_
_geom_torsion_atom_site_label_1 
_geom_torsion_atom_site_label_2 
_geom_torsion_atom_site_label_3 
_geom_torsion_atom_site_label_4 
_geom_torsion_site_symmetry_1   
_geom_torsion_site_symmetry_2   
_geom_torsion_site_symmetry_3   
_geom_torsion_site_symmetry_4   
_geom_torsion                   
_geom_torsion_publ_flag         
?   ?   ?   ?   ?   ?   ?   ?   ?   ?
 
loop_
_geom_hbond_atom_site_label_D 
_geom_hbond_atom_site_label_H 
_geom_hbond_atom_site_label_A 
_geom_hbond_site_symmetry_D   
_geom_hbond_site_symmetry_H   
_geom_hbond_site_symmetry_A   
_geom_hbond_distance_DH       
_geom_hbond_distance_HA       
_geom_hbond_distance_DA       
_geom_hbond_angle_DHA         
_geom_hbond_publ_flag         
?   ?   ?   ?   ?   ?   ?   ?   ?   ?   ?
 
#=============================================================================
 
#=============================================================================
# Additional structures (last six sections and associated data_? identifiers) 
# may be added at this point.                                                 
#=============================================================================
 
data_data_CeriumChloride           
 
#=============================================================================
 
# 5. CHEMICAL DATA
 
_chemical_name_systematic
; ?
;
_chemical_name_common             ?
_chemical_formula_moiety          ?
_chemical_formula_structural      ?
_chemical_formula_analytical      ?
_chemical_formula_iupac           ?
_chemical_formula_sum             ?
_chemical_formula_weight          ?
_chemical_melting_point           ?
_chemical_compound_source         ?       # for minerals and 
                                          # natural products
 
loop_
    _atom_type_symbol               
    _atom_type_scat_Cromer_Mann_a1 
    _atom_type_scat_Cromer_Mann_b1 
    _atom_type_scat_Cromer_Mann_a2 
    _atom_type_scat_Cromer_Mann_b2 
    _atom_type_scat_Cromer_Mann_a3 
    _atom_type_scat_Cromer_Mann_b3 
    _atom_type_scat_Cromer_Mann_a4 
    _atom_type_scat_Cromer_Mann_b4 
    _atom_type_scat_Cromer_Mann_c 
    _atom_type_scat_dispersion_real 
    _atom_type_scat_dispersion_imag 
    _atom_type_scat_source          
 
#=============================================================================
 
# 6. POWDER SPECIMEN AND CRYSTAL DATA
 
_symmetry_cell_setting                Hexagonal
_symmetry_space_group_name_H-M       'P 63/m'
_symmetry_space_group_name_Hall      '-P 6c'
 
loop_
    _symmetry_equiv_pos_as_xyz   #<--must include 'x,y,z'
'x,y,z'
'x-y,x,z+1/2'
'-y,x-y,z'
'-x,-y,z+1/2'
'-x+y,-x,z'
'y,-x+y,z+1/2'
'-x,-y,-z'
'-x+y,-x,-z+1/2'
'y,-x+y,-z'
'x,y,-z+1/2'
'x-y,x,-z'
'-y,x-y,-z+1/2'
 
_cell_length_a                       7.4635978(14)
_cell_length_b                       7.4635978(14)
_cell_length_c                       4.329502(4)
_cell_angle_alpha                    90.00000
_cell_angle_beta                     90.00000
_cell_angle_gamma                    120.00000
_cell_volume                         208.865(12)
_cell_formula_units_Z                ?
_cell_measurement_temperature        ?
_cell_special_details
; ?
;
# The next three fields give the specimen dimensions in mm.  The equatorial
# plane contains the incident and diffracted beam.
 
_pd_spec_size_axial               ?       # perpendicular to 
                                          # equatorial plane
_pd_spec_size_equat               ?       # parallel to 
                                          # scattering vector
                                          # in transmission
_pd_spec_size_thick               ?       # parallel to 
                                          # scattering vector
                                          # in reflection
 
# The next five fields are character fields that describe the specimen.
 
_pd_spec_mounting                         # This field should be
                                          # used to give details of the 
                                          # container.
; ?
;
_pd_spec_mount_mode               ?       # options are 'reflection'
                                          # or 'transmission'
_pd_spec_shape                    ?       # options are 'cylinder' 
                                          # 'flat_sheet' or 'irregular'
_pd_char_particle_morphology      ?
_pd_char_colour                   ?       # use ICDD colour descriptions
 
# The following three fields describe the preparation of the specimen.
# The cooling rate is in K/min.  The pressure at which the sample was 
# prepared is in kPa.  The temperature of preparation is in K.        
 
_pd_prep_cool_rate                ?
_pd_prep_pressure                 ?
_pd_prep_temperature              ?
 
# The next four fields are normally only needed for transmission experiments.
 
_exptl_absorpt_coefficient_mu        ?
_exptl_absorpt_correction_type       ?
_exptl_absorpt_process_details       ?
_exptl_absorpt_correction_T_min      ?
_exptl_absorpt_correction_T_max      ?
 
#=============================================================================
 
# 7. EXPERIMENTAL DATA
 
_exptl_special_details
; ?
;
 
# The following item is used to identify the equipment used to record 
# the powder pattern when the diffractogram was measured at a laboratory 
# other than the authors' home institution, e.g. when neutron or synchrotron
# radiation is used.
 
_pd_instr_location
; ?
;
_pd_calibration_special_details           # description of the method used
                                          # to calibrate the instrument
; ?
;
 
_diffrn_ambient_temperature          ?
_diffrn_source                   ? # Put here: 'rotating-anode X-ray tube' or similar 
_diffrn_radiation_type           'X-ray' 
_diffrn_source_target            ? # Put here the chemical symbol of the anode
 
_diffrn_radiation_monochromator      ?
_diffrn_measurement_device_type      ?
_diffrn_measurement_method           ?
_diffrn_detector_area_resol_mean     ?   # Not in version 2.0.1
_diffrn_detector                     ?
_diffrn_detector_type                ?   # make or model of detector
_pd_meas_scan_method                 ?   # options are 'step', 'cont',
                                         # 'tof', 'fixed' or
                                         # 'disp' (= dispersive)
_pd_meas_special_details
;  ?
;
 
#  The following four items give details of the measured (not processed)
#  powder pattern.  Angles are in degrees.
 
_pd_meas_number_of_points         0
_pd_meas_2theta_range_min         2.17205
_pd_meas_2theta_range_max         34.84836
_pd_meas_2theta_range_inc         0.027344
 
#=============================================================================
 
# 8. REFINEMENT DATA
 
_refine_special_details
; ?
;
 
# Use the next field to give any special details about the fitting of the
# powder pattern.
 
_pd_proc_ls_special_details
; ?
;
 
# The next three items are given as text.
 
_pd_proc_ls_profile_function      ?
_pd_proc_ls_background_function   ?
_pd_proc_ls_pref_orient_corr
; ?
;
 
#  The following profile R-factors are NOT CORRECTED for background
#  The sum is extended to all non-excluded points.
#  These are the current CIF standard
 
_pd_proc_ls_prof_R_factor                2.6198
_pd_proc_ls_prof_wR_factor               3.3194
_pd_proc_ls_prof_wR_expected             0.0542
 
#  The following profile R-factors are CORRECTED for background
#  The sum is extended to all non-excluded points.
#  These items are not in the current CIF standard, but are defined above
 
_pd_proc_ls_prof_cR_factor                5.0924
_pd_proc_ls_prof_cwR_factor               5.9754
_pd_proc_ls_prof_cwR_expected             0.0975
 
#  The following items are not in the CIF standard, but are defined above
 
_pd_proc_ls_prof_chi2              3755.8647
_pd_proc_ls_prof_echi2             3755.8647
 
#  Items related to LS refinement
 
_refine_ls_R_I_factor                 4.9845
_refine_ls_number_reflns                    65
_refine_ls_number_parameters                44
_refine_ls_number_restraints                 0
 
# The following four items apply to angular dispersive measurements.
# 2theta minimum, maximum and increment (in degrees) are for the 
# intensities used in the refinement.
 
_pd_proc_2theta_range_min                2.1929
_pd_proc_2theta_range_max               34.8692
_pd_proc_2theta_range_inc              0.027344
_pd_proc_wavelength                    0.709637
 
_pd_block_diffractogram_id        ?  # The id used for the block containing
                                     # the powder pattern profile (section 11)
 
# Give appropriate details in the next two text fields.
 
_pd_proc_info_excluded_regions    ?
_pd_proc_info_data_reduction      ?
 
# The following items are used to identify the programs used.
 
_computing_data_collection           ?
_computing_structure_solution        ?
_computing_structure_refinement      FULLPROF
_computing_molecular_graphics        ?
_computing_publication_material      ?
 
#=============================================================================
 
# 9. ATOMIC COORDINATES AND DISPLACEMENT PARAMETERS
 
loop_
    _atom_site_label
    _atom_site_fract_x
    _atom_site_fract_y
    _atom_site_fract_z
    _atom_site_U_iso_or_equiv
    _atom_site_occupancy
    _atom_site_adp_type              # Not in version 2.0.1
    _atom_site_type_symbol
 Ce1   0.33330     0.66670     0.25000     0.0175(8)   1.00000    Uiso Ce  
 Cl1   0.37500     0.29200     0.25000     0.0241(19)  1.00000    Uiso Cl  
 
# Note: if the displacement parameters were refined anisotropically
# the U matrices should be given as for single-crystal studies.
 
#=============================================================================
 
# 10. DISTANCES AND ANGLES / MOLECULAR GEOMETRY 
 
_geom_special_details                ?
 
loop_
    _geom_bond_atom_site_label_1  
    _geom_bond_atom_site_label_2  
    _geom_bond_site_symmetry_1    
    _geom_bond_site_symmetry_2    
    _geom_bond_distance           
    _geom_bond_publ_flag          
    ?   ?   ?   ?   ?   ?
 
loop_
    _geom_contact_atom_site_label_1 
    _geom_contact_atom_site_label_2 
    _geom_contact_distance          
    _geom_contact_site_symmetry_1   
    _geom_contact_site_symmetry_2   
    _geom_contact_publ_flag         
    ?   ?   ?   ?   ?   ?
 
loop_
_geom_angle_atom_site_label_1 
_geom_angle_atom_site_label_2 
_geom_angle_atom_site_label_3 
_geom_angle_site_symmetry_1   
_geom_angle_site_symmetry_2   
_geom_angle_site_symmetry_3   
_geom_angle                   
_geom_angle_publ_flag         
?   ?   ?   ?   ?   ?   ?   ?
 
loop_
_geom_torsion_atom_site_label_1 
_geom_torsion_atom_site_label_2 
_geom_torsion_atom_site_label_3 
_geom_torsion_atom_site_label_4 
_geom_torsion_site_symmetry_1   
_geom_torsion_site_symmetry_2   
_geom_torsion_site_symmetry_3   
_geom_torsion_site_symmetry_4   
_geom_torsion                   
_geom_torsion_publ_flag         
?   ?   ?   ?   ?   ?   ?   ?   ?   ?
 
loop_
_geom_hbond_atom_site_label_D 
_geom_hbond_atom_site_label_H 
_geom_hbond_atom_site_label_A 
_geom_hbond_site_symmetry_D   
_geom_hbond_site_symmetry_H   
_geom_hbond_site_symmetry_A   
_geom_hbond_distance_DH       
_geom_hbond_distance_HA       
_geom_hbond_distance_DA       
_geom_hbond_angle_DHA         
_geom_hbond_publ_flag         
?   ?   ?   ?   ?   ?   ?   ?   ?   ?   ?
 
#=============================================================================
 
#=============================================================================
# Additional structures (last six sections and associated data_? identifiers) 
# may be added at this point.                                                 
#=============================================================================
 
# The following lines are used to test the character set of files sent by     
# network email or other means. They are not part of the CIF data set.        
# abcdefghijklmnopqrstuvwxyzABCDEFGHIJKLMNOPQRSTUVWXYZ0123456789              
# !@#$%^&*()_+{}:"~<>?|\-=[];'`,./ 
