
data_b_Mn_13_2_5

loop_
  _audit_conform_dict_name
  _audit_conform_dict_version
  _audit_conform_dict_location
     cif_core.dic .  ftp://ftp.iucr.org/pub/cif_core.dic
     cif_pd.dic .  ftp://ftp.iucr.org/pub/cif_pd.dic

_chemical_formula_sum             'B15 H60 Li3 Mn1 Zn5'

_chemical_formula_weight          625.28
_chemical_formula_structural          'Li3 Mn Zn5 (BH4)15'

_cell_length_a  15.3906(27)
_cell_length_b  15.3906(27)
_cell_length_c  8.5898(18)
_cell_angle_alpha 90
_cell_angle_beta  90
_cell_angle_gamma 120
_cell_volume 1762.09(72)

_cell_formula_units_Z     2  
_cell_measurement_temperature     295

_diffrn_ambient_temperature     295
_diffrn_radiation_wavelength    0.75274

_symmetry_space_group_name_H-M P_63/m_c_m
loop_
_symmetry_equiv_pos_as_xyz
	'-x, -x+y, -z+1/2'
	'-x, -x+y, z'
	'-x, -y, -z'
	'-x, -y, z+1/2'
	'-x+y, -x, -z+1/2'
	'-x+y, -x, z'
	'-x+y, y, -z'
	'-x+y, y, z+1/2'
	'-y, -x, -z'
	'-y, -x, z+1/2'
	'-y, x-y, -z+1/2'
	'-y, x-y, z'
	'y, -x+y, -z'
	'y, -x+y, z+1/2'
	'y, x, -z+1/2'
	'y, x, z'
	'x-y, -y, -z+1/2'
	'x-y, -y, z'
	'x-y, x, -z'
	'x-y, x, z+1/2'
	'x, y, -z+1/2'
	'x, y, z'
	'x, x-y, -z'
	'x, x-y, z+1/2'


_pd_proc_2theta_range_min         2.1             

_pd_proc_2theta_range_max        31.00             

_pd_proc_2theta_range_inc       0.027
_pd_proc_wavelength             0.75274   


loop_
_atom_site_label
_atom_site_type_symbol
_atom_site_symmetry_multiplicity
_atom_site_fract_x
_atom_site_fract_y
_atom_site_fract_z
_atom_site_occupancy
_atom_site_B_iso_or_equiv
Zn1 Zn   0 0.3333333 0.6666667 0.25 1 3.93(54)
Zn2 Zn   0 0.28609(43) 0 0.25 1 3.93(54)
Li1 Li   0 0.60885(65) 0 0.25 0.66(1) 0.20(98)
Mn1 Mn   0 0.60885(65) 0 0.25 0.34(1) 0.20(98)
Li2 Li   0 0 0 0 1.000(41) 0.20(98)
B1 B   0 0.1312562 0. 0.25 1 4.0(11)
H11 H   0 0.08901241 0. 0.3579802 1 4.0(11)
H12 H   0 0.1390531 -0.06938794 0.25 1 4.0(11)
B2 B   0 0.3320008 0. 0.001795784 1 4.0(11)
H21 H   0 0.295792 0. -0.1130071 1 4.0(11)
H22 H   0 0.4044797 0. -0.02110249 1 4.0(11)
H23 H   0 0.2791717 -0.06938794 0.07064635 1 4.0(11)
B3 B   0 0.5252469 0.3437408 0.25 1 4.0(11)
H31 H   0 0.4432175 0.2834932 0.25 1 4.0(11)
H32 H   0 0.5316519 0.420331 0.25 1 4.0(11)
H33 H   0 0.5630595 0.3355695 0.1423324 1 4.0(11)