####################################################################### 
# 
# This file contains crystal structure data downloaded from the 
# Cambridge Structural Database (CSD) hosted by the Cambridge 
# Crystallographic Data Centre (CCDC).
# 
# Full information about CCDC data access policies and citation 
# guidelines are available at http://www.ccdc.cam.ac.uk/access/V1 
# 
# Audit and citation data items may have been added by the CCDC. 
# Please retain this information to preserve the provenance of 
# this file and to allow appropriate attribution of the data. 
# 
#######################################################################

data_XIHFAW02
#This CIF has been generated from an entry in the Cambridge Structural Database
_database_code_depnum_ccdc_archive 'CCDC 1296545'
_database_code_CSD               XIHFAW02
loop_
_citation_id
_citation_doi
_citation_year
1 10.1016/j.jssc.2007.01.031 2007
_audit_creation_method           'Created from the CSD'
_audit_update_record             
;
2019-01-16 downloaded from the CCDC.
;
_chemical_formula_moiety         'Li1 1+,H4 B1 1-'
_chemical_name_systematic        'Lithium borohydride'
_chemical_absolute_configuration unk
_diffrn_ambient_temperature      400
_exptl_crystal_density_diffrn    0.663
#These two values have been output from a single CSD field.
_refine_ls_R_factor_gt           0.0215
_refine_ls_wR_factor_gt          0.0215
_diffrn_radiation_probe          neutron
_diffrn_source                   'neutron radiation'
_symmetry_cell_setting           hexagonal
_symmetry_space_group_name_H-M   'P 63 m c'
_symmetry_Int_Tables_number      186
_space_group_name_Hall           "P 6c -2'c"
loop_
_symmetry_equiv_pos_site_id
_symmetry_equiv_pos_as_xyz
1 x,y,z
2 x-y,x,1/2+z
3 y,x,1/2+z
4 -y,x-y,z
5 -x+y,y,z
6 -x,-y,1/2+z
7 -x,-x+y,1/2+z
8 -x+y,-x,z
9 -y,-x,z
10 y,-x+y,1/2+z
11 x-y,-y,1/2+z
12 x,x-y,z
_cell_length_a                   4.27631(5)
_cell_length_b                   4.27631(5)
_cell_length_c                   6.94844(8)
_cell_angle_alpha                90
_cell_angle_beta                 90
_cell_angle_gamma                120
_cell_volume                     109.135
_cell_formula_units_Z            2
loop_
_atom_site_label
_atom_site_type_symbol
_atom_site_fract_x
_atom_site_fract_y
_atom_site_fract_z
B1 B 0.33 0.67 -0.4244(40)
H1 H 0.33 0.67 -0.563(10)
H2 H 0.2053(18) 0.4106(36) -0.3679(68)
B1G B 0.34 0.67 -0.4244(40)
H1G H 0.34 0.67 -0.563(10)
H1K H 0.33 0.66 -0.563(10)
B1K B 0.33 0.66 -0.4244(40)
H2K H 0.2053(18) 0.7947(40) -0.3679(68)
H2C H 0.5894(36) 0.7947(40) -0.3679(68)
Li1 Li 0.33 0.67 0.0000

#END
