####################################################################### 
# 
# This file contains crystal structure data downloaded from the 
# Cambridge Structural Database (CSD) hosted by the Cambridge 
# Crystallographic Data Centre (CCDC).
# 
# Full information about CCDC data access policies and citation 
# guidelines are available at http://www.ccdc.cam.ac.uk/access/V1 
# 
# Audit and citation data items may have been added by the CCDC. 
# Please retain this information to preserve the provenance of 
# this file and to allow appropriate attribution of the data. 
# 
#######################################################################

data_XIHFAW
#This CIF has been generated from an entry in the Cambridge Structural Database
_database_code_depnum_ccdc_archive 'CCDC 1296543'
_database_code_CSD               XIHFAW
loop_
_citation_id
_citation_doi
_citation_year
1 10.1016/j.jssc.2007.01.031 2007
_audit_creation_method           'Created from the CSD'
_audit_update_record             
;
2019-01-16 downloaded from the CCDC.
;
_chemical_formula_moiety         'Li1 1+,H4 B1 1-'
_chemical_name_systematic        'Lithium borohydride'
_chemical_absolute_configuration unk
_diffrn_ambient_temperature      4
_exptl_crystal_density_diffrn    0.691
#These two values have been output from a single CSD field.
_refine_ls_R_factor_gt           0.0221
_refine_ls_wR_factor_gt          0.0221
_diffrn_radiation_probe          neutron
_diffrn_source                   'neutron radiation'
_symmetry_cell_setting           orthorhombic
_symmetry_space_group_name_H-M   'P n m a'
_symmetry_Int_Tables_number      62
_space_group_name_Hall           '-P 2ac 2n'
loop_
_symmetry_equiv_pos_site_id
_symmetry_equiv_pos_as_xyz
1 x,y,z
2 1/2-x,-y,1/2+z
3 1/2+x,1/2-y,1/2-z
4 -x,1/2+y,-z
5 -x,-y,-z
6 1/2+x,y,1/2-z
7 1/2-x,1/2+y,1/2+z
8 x,1/2-y,z
_cell_length_a                   7.178584)
_cell_length_b                   4.43686(2)
_cell_length_c                   6.80321(4)
_cell_angle_alpha                90
_cell_angle_beta                 90
_cell_angle_gamma                90
_cell_volume                     209.419
_cell_formula_units_Z            4
loop_
_atom_site_label
_atom_site_type_symbol
_atom_site_fract_x
_atom_site_fract_y
_atom_site_fract_z
Li1 Li 0.1597(10) 0.2500 0.1106(10)
B1 B 0.3054(3) 0.2500 0.4301(5)
H1 H 0.4072(6) 0.2500 0.5759(10)
H2 H 0.3995(6) 0.2500 0.2766(6)
H3 H 0.2048(4) 0.0293(5) 0.4268(7)
H3G H 0.2048(4) 0.4707(5) 0.4268(7)

#END
