##############################################################################
###      FullProf-generated CIF output file  (version: May 2016)           ###
###      Template of CIF submission form for structure report              ###
##############################################################################
 
# This file has been generated using FullProf.2k taking one example of 
# structure report provided by Acta Cryst. It is given as a 'template' with 
# filled structural items. Many other items are left unfilled and it is the  
# responsibility of the user to properly fill or suppress them. In principle 
# all question marks '?' should be replaced by the appropriate text or 
# numerical value depending on the kind of CIF item. 
# See the document: cif_core.dic (URL: http://www.iucr.org) for details. 
 
# Please notify any error or suggestion to: 
#           Juan Rodriguez-Carvajal (jrc@ill.eu)
# Improvements will be progressively added as needed.
 
#=============================================================================
data_global

_publ_requested_journal          'The Journal of Physical Chemistry C'

#=============================================================================

# 1. SUBMISSION DETAILS

_publ_contact_author_name        
'SeyedHosein Payandeh GharibDoust' # Name of author for correspondence
_publ_contact_author_address     # Address of author for correspondence
;Aarhus University
Department of Chemistry
Langelandsgade 140
8000 Aarhus C
Denmark
;
_publ_contact_author_email       Hosein.payandeh@inano.au.dk
_publ_contact_author_phone       +4542323843
_publ_contact_author_fax         ?
loop_
_publ_author_name
_publ_author_address
'Payandeh GharibDoust, SeyedHosein'
'Interdisciplinary Nanoscience Center (iNANO) and Department of Chemistry, University of Aarhus, Denmark'
'Matteo, Brighi'
'Laboratory of Crystallography, Department of Quantum Matter Physics, University of Geneva, 1211 Geneva, Switzerland'
'Yolanda, Sadikin'
'Laboratory of Crystallography, Department of Quantum Matter Physics, University of Geneva, 1211 Geneva, Switzerland'
'Dorthe Bomholdt, Ravnsbaek'
'Department of Physics, Chemistry and Pharmacy, University of Southern Denmark, Campusvej 55, 5230 Odense M, Denmark. '
"Radovan, Cerny"
'Laboratory of Crystallography, Department of Quantum Matter Physics, University of Geneva, 1211 Geneva, Switzerland. '
'J\/orgen, Skibsted'
'Interdisciplinary Nanoscience Center (iNANO) and Department of Chemistry, University of Aarhus, Denmark. '
"Torben Ren\'e, Jensen"
'Interdisciplinary Nanoscience Center (iNANO) and Department of Chemistry, University of Aarhus, Denmark. '
#=============================================================================

# PROCESSING SUMMARY (IUCr Office Use Only)

_journal_data_validation_number  ?

_journal_date_recd_electronic    ?
_journal_date_to_coeditor        ?
_journal_date_from_coeditor      ?
_journal_date_accepted           ?
_journal_date_printers_first     ?
_journal_date_printers_final     ?
_journal_date_proofs_out         ?
_journal_date_proofs_in          ?
_journal_coeditor_name           ?
_journal_coeditor_code           ?
_journal_coeditor_notes          
; ?
;
_journal_techeditor_code         ?
_journal_techeditor_notes        
; ?
;
_journal_coden_ASTM              ?
_journal_name_full               ?
_journal_year                    ?
_journal_volume                  ?
_journal_issue                   ?
_journal_page_first              ?
_journal_page_last               ?
_journal_paper_category          ?
_journal_suppl_publ_number       ?
_journal_suppl_publ_pages        ?

_publ_contact_letter             
; ?
;
_publ_requested_coeditor_name    ?
_publ_requested_category         ? # Acta C: one of CI/CM/CO/FI/FM/FO


# Definition of non standard CIF items (Reliability indices used in FULLPROF) 

loop_
_publ_manuscript_incl_extra_item
_publ_manuscript_incl_extra_info
_publ_manuscript_incl_extra_defn
#      Name                               Explanation                 Standard?
#     ------                              -----------                 ---------
'_pd_proc_ls_prof_cR_factor' 'Prof. R-factor CORRECTED for background' no
'_pd_proc_ls_prof_cwR_factor' 'wProf.R-factor CORRECTED for background' no
'_pd_proc_ls_prof_cwR_expected' 'wProf.Expected CORRECTED for background' no
'_pd_proc_ls_prof_chi2' 'Chi-square for all considered points' no
'_pd_proc_ls_prof_echi2' 'Chi-2 for points with Bragg contribution' no
#=============================================================================

# 3. TITLE AND AUTHOR LIST

_publ_section_title              
; 'Fox/ObjCryst exported file:Powder Pattern #1'
;
_publ_section_title_footnote     
;
;
loop_
_publ_author_footnote
; ?
;

#=============================================================================

# 4. TEXT

_publ_section_synopsis           
;  ?
;
_publ_section_abstract           
; ?
;
_publ_section_comment            
; ?
;
_publ_section_exptl_prep         
# Details of the preparation of the sample(s)
# should be given here. 
; ?
;
_publ_section_exptl_refinement   
; ?
;
_publ_section_references         
; ?
;
_publ_section_figure_captions    
; ?
;
_publ_section_acknowledgements   
; ?
;

#=============================================================================
 
#=============================================================================
# If more than one structure is reported, the remaining sections should be 
# completed per structure. For each data set, replace the '?' in the
# data_? line below by a unique identifier.
 
data_LiLa(BH4)3Cl                  
 
#=============================================================================
 
# 5. CHEMICAL DATA
 
_chemical_name_systematic
; ?
;
_chemical_name_common             ?
_chemical_formula_moiety          ?
_chemical_formula_structural      LiLa(BH4)3Cl
_chemical_formula_analytical      ?
_chemical_formula_iupac           ?
_chemical_formula_sum             ?
_chemical_formula_weight          ?
_chemical_melting_point           ?
_chemical_compound_source         ?       # for minerals and 
                                          # natural products
 
loop_
    _atom_type_symbol               
    _atom_type_scat_Cromer_Mann_a1 
    _atom_type_scat_Cromer_Mann_b1 
    _atom_type_scat_Cromer_Mann_a2 
    _atom_type_scat_Cromer_Mann_b2 
    _atom_type_scat_Cromer_Mann_a3 
    _atom_type_scat_Cromer_Mann_b3 
    _atom_type_scat_Cromer_Mann_a4 
    _atom_type_scat_Cromer_Mann_b4 
    _atom_type_scat_Cromer_Mann_c 
    _atom_type_scat_dispersion_real 
    _atom_type_scat_dispersion_imag 
    _atom_type_scat_source          
la    20.57800   2.94817  19.59900   0.24448  11.37270  18.77260
       3.28719 133.12399   2.14678  -0.58800   2.45200
 International_Tables_for_Crystallography_Vol.C(1991)_Tables_6.1.1.4_and_6.1.1.5
b      2.05450  23.21850   1.33260   1.02100   1.09790  60.34980
       0.70680   0.14030  -0.19320   0.00000   0.00100
 International_Tables_for_Crystallography_Vol.C(1991)_Tables_6.1.1.4_and_6.1.1.5
cl    11.46040   0.01040   7.19640   1.16620   6.25560  18.51940
       1.64550  47.77840  -9.55740   0.13200   0.15900
 International_Tables_for_Crystallography_Vol.C(1991)_Tables_6.1.1.4_and_6.1.1.5
li     1.12820   3.95460   0.75080   1.05240   0.61750  85.39050
       0.46530 168.26100   0.03770   0.00000   0.00000
 International_Tables_for_Crystallography_Vol.C(1991)_Tables_6.1.1.4_and_6.1.1.5
h      0.49300  10.51090   0.32291  26.12570   0.14019   3.14236
       0.04081  57.79970   0.00304   0.00000   0.00000
 International_Tables_for_Crystallography_Vol.C(1991)_Tables_6.1.1.4_and_6.1.1.5
 
#=============================================================================
 
# 6. POWDER SPECIMEN AND CRYSTAL DATA
 
_symmetry_cell_setting                Cubic
_symmetry_space_group_name_H-M       'I -4 3 m'
_symmetry_space_group_name_Hall      'I -4 2 3'
 
loop_
    _symmetry_equiv_pos_as_xyz   #<--must include 'x,y,z'
'x,y,z'
'x,-y,-z'
'-x,y,-z'
'-x,-y,z'
'y,z,x'
'-y,-z,x'
'y,-z,-x'
'-y,z,-x'
'z,x,y'
'-z,x,-y'
'-z,-x,y'
'z,-x,-y'
'y,x,z'
'-y,x,-z'
'y,-x,-z'
'-y,-x,z'
'z,y,x'
'-z,-y,x'
'-z,y,-x'
'z,-y,-x'
'x,z,y'
'x,-z,-y'
'-x,-z,y'
'-x,z,-y'
'x+1/2,y+1/2,z+1/2'
'x+1/2,-y+1/2,-z+1/2'
'-x+1/2,y+1/2,-z+1/2'
'-x+1/2,-y+1/2,z+1/2'
'y+1/2,z+1/2,x+1/2'
'-y+1/2,-z+1/2,x+1/2'
'y+1/2,-z+1/2,-x+1/2'
'-y+1/2,z+1/2,-x+1/2'
'z+1/2,x+1/2,y+1/2'
'-z+1/2,x+1/2,-y+1/2'
'-z+1/2,-x+1/2,y+1/2'
'z+1/2,-x+1/2,-y+1/2'
'y+1/2,x+1/2,z+1/2'
'-y+1/2,x+1/2,-z+1/2'
'y+1/2,-x+1/2,-z+1/2'
'-y+1/2,-x+1/2,z+1/2'
'z+1/2,y+1/2,x+1/2'
'-z+1/2,-y+1/2,x+1/2'
'-z+1/2,y+1/2,-x+1/2'
'z+1/2,-y+1/2,-x+1/2'
'x+1/2,z+1/2,y+1/2'
'x+1/2,-z+1/2,-y+1/2'
'-x+1/2,-z+1/2,y+1/2'
'-x+1/2,z+1/2,-y+1/2'
 
_cell_length_a                       11.6893(3)
_cell_length_b                       11.6893(3)
_cell_length_c                       11.6893(3)
_cell_angle_alpha                    90.00000
_cell_angle_beta                     90.00000
_cell_angle_gamma                    90.00000
_cell_volume                         1597.22(7)
_cell_formula_units_Z                8
_cell_measurement_temperature        298
_cell_special_details
; ?
;
# The next three fields give the specimen dimensions in mm.  The equatorial
# plane contains the incident and diffracted beam.
 
_pd_spec_size_axial               ?       # perpendicular to 
                                          # equatorial plane
_pd_spec_size_equat               ?       # parallel to 
                                          # scattering vector
                                          # in transmission
_pd_spec_size_thick               ?       # parallel to 
                                          # scattering vector
                                          # in reflection
 
# The next five fields are character fields that describe the specimen.
 
_pd_spec_mounting                         # This field should be
                                          # used to give details of the 
                                          # container.
; ?
;
_pd_spec_mount_mode               ?       # options are 'reflection'
                                          # or 'transmission'
_pd_spec_shape                    ?       # options are 'cylinder' 
                                          # 'flat_sheet' or 'irregular'
_pd_char_particle_morphology      ?
_pd_char_colour                   ?       # use ICDD colour descriptions
 
# The following three fields describe the preparation of the specimen.
# The cooling rate is in K/min.  The pressure at which the sample was 
# prepared is in kPa.  The temperature of preparation is in K.        
 
_pd_prep_cool_rate                ?
_pd_prep_pressure                 ?
_pd_prep_temperature              ?
 
# The next four fields are normally only needed for transmission experiments.
 
_exptl_absorpt_coefficient_mu        ?
_exptl_absorpt_correction_type       ?
_exptl_absorpt_process_details       ?
_exptl_absorpt_correction_T_min      ?
_exptl_absorpt_correction_T_max      ?
 
#=============================================================================
 
# 7. EXPERIMENTAL DATA
 
_exptl_special_details
; ?
;
 
# The following item is used to identify the equipment used to record 
# the powder pattern when the diffractogram was measured at a laboratory 
# other than the authors' home institution, e.g. when neutron or synchrotron
# radiation is used.
 
_pd_instr_location
; ?
;
_pd_calibration_special_details           # description of the method used
                                          # to calibrate the instrument
; ?
;
 
_diffrn_ambient_temperature          ?
_diffrn_source              ? # Put here: 'rotating-anode X-ray tube' or similar 
_diffrn_radiation_type     'X-ray' 
_diffrn_source_target       ? # Put here the chemical symbol of the anode
 
_diffrn_radiation_monochromator      ?
_diffrn_measurement_device_type      ?
_diffrn_measurement_method           ?
_diffrn_detector_area_resol_mean     ? 
_diffrn_detector                     ?
_diffrn_detector_type                ? # make or model of detector
_pd_meas_scan_method      ?   # options are 'step', 'cont',
                              # 'tof', 'fixed' or
                              # 'disp' (= dispersive)
_pd_meas_special_details
;  ?
;
 
#  The following four items give details of the measured (not processed)
#  powder pattern.  Angles are in degrees.
 
_pd_meas_number_of_points         3006
_pd_meas_2theta_range_min         2.18640
_pd_meas_2theta_range_max         39.41030
_pd_meas_2theta_range_inc         0.012391
 
#=============================================================================
 
# 8. REFINEMENT DATA
 
_refine_special_details
; ?
;
 
# Use the next field to give any special details about the fitting of the
# powder pattern.
 
_pd_proc_ls_special_details
; ?
;
 
# The next three items are given as text.
 
_pd_proc_ls_profile_function      ?
_pd_proc_ls_background_function   ?
_pd_proc_ls_pref_orient_corr
; ?
;
 
#  The following profile R-factors are NOT CORRECTED for background
#  The sum is extended to all non-excluded points.
#  These are the current CIF standard
 
_pd_proc_ls_prof_R_factor                4.3205
_pd_proc_ls_prof_wR_factor               7.2050
_pd_proc_ls_prof_wR_expected             0.1303
 
#  The following profile R-factors are CORRECTED for background
#  The sum is extended to all non-excluded points.
#  These items are not in the current CIF standard, but are defined above
 
_pd_proc_ls_prof_cR_factor               17.5821
_pd_proc_ls_prof_cwR_factor              19.4637
_pd_proc_ls_prof_cwR_expected             0.3519
 
#  The following items are not in the CIF standard, but are defined above
 
_pd_proc_ls_prof_chi2              3059.4297
_pd_proc_ls_prof_echi2             3200.9258
 
#  Items related to LS refinement
 
_refine_ls_R_I_factor                 8.6868
_refine_ls_number_reflns                   110
_refine_ls_number_parameters                30
_refine_ls_number_restraints                 0
 
# The following four items apply to angular dispersive measurements.
# 2theta minimum, maximum and increment (in degrees) are for the 
# intensities used in the refinement.
 
_pd_proc_2theta_range_min                2.1626
_pd_proc_2theta_range_max               39.3865
_pd_proc_2theta_range_inc              0.012391
_pd_proc_wavelength                    0.712900
 
_pd_block_diffractogram_id        ?  # The id used for the block containing
                                     # the powder pattern profile (section 11)
 
# Give appropriate details in the next two text fields.
 
_pd_proc_info_excluded_regions    ?
_pd_proc_info_data_reduction      ?
 
# The following items are used to identify the programs used.
 
_computing_data_collection           ?
_computing_structure_solution        ?
_computing_structure_refinement      FULLPROF
_computing_molecular_graphics        ?
_computing_publication_material      ?
 
#=============================================================================
 
# 9. ATOMIC COORDINATES AND DISPLACEMENT PARAMETERS
 
loop_
    _atom_site_label
    _atom_site_fract_x
    _atom_site_fract_y
    _atom_site_fract_z
    _atom_site_U_iso_or_equiv
    _atom_site_occupancy
    _atom_site_adp_type
    _atom_site_type_symbol
 La11  0.64130  0.64130  0.64130  0.0259(11)  1.00000 Uiso La    
 B12  0.12160  0.12160  0.37350  0.04212  0.99998 Uiso B     
 Cl13  0.89340  0.89340  0.89340  0.027(3)  1.00000 Uiso Cl    
 Li34  0.25000  0.50000  0.00000  0.11(5)  0.66679 Uiso Li    
 H15  0.14630  0.02580  0.32990  0.05(3)  0.99998 Uiso H     
 H16  0.11180  0.11180  0.47770  0.05(3)  0.99998 Uiso H     
 H17  0.18890  0.18890  0.34790  0.05(3)  0.99998 Uiso H     
 
# Note: if the displacement parameters were refined anisotropically
# the U matrices should be given as for single-crystal studies.
 
#=============================================================================
 
# 10. DISTANCES AND ANGLES / MOLECULAR GEOMETRY 
 
_geom_special_details                ?
 
loop_
    _geom_bond_atom_site_label_1  
    _geom_bond_atom_site_label_2  
    _geom_bond_site_symmetry_1    
    _geom_bond_site_symmetry_2    
    _geom_bond_distance           
    _geom_bond_publ_flag          
    ?   ?   ?   ?   ?   ?
 
loop_
    _geom_contact_atom_site_label_1 
    _geom_contact_atom_site_label_2 
    _geom_contact_distance          
    _geom_contact_site_symmetry_1   
    _geom_contact_site_symmetry_2   
    _geom_contact_publ_flag         
    ?   ?   ?   ?   ?   ?
 
loop_
_geom_angle_atom_site_label_1 
_geom_angle_atom_site_label_2 
_geom_angle_atom_site_label_3 
_geom_angle_site_symmetry_1   
_geom_angle_site_symmetry_2   
_geom_angle_site_symmetry_3   
_geom_angle                   
_geom_angle_publ_flag         
?   ?   ?   ?   ?   ?   ?   ?
 
loop_
_geom_torsion_atom_site_label_1 
_geom_torsion_atom_site_label_2 
_geom_torsion_atom_site_label_3 
_geom_torsion_atom_site_label_4 
_geom_torsion_site_symmetry_1   
_geom_torsion_site_symmetry_2   
_geom_torsion_site_symmetry_3   
_geom_torsion_site_symmetry_4   
_geom_torsion                   
_geom_torsion_publ_flag         
?   ?   ?   ?   ?   ?   ?   ?   ?   ?
 
loop_
_geom_hbond_atom_site_label_D 
_geom_hbond_atom_site_label_H 
_geom_hbond_atom_site_label_A 
_geom_hbond_site_symmetry_D   
_geom_hbond_site_symmetry_H   
_geom_hbond_site_symmetry_A   
_geom_hbond_distance_DH       
_geom_hbond_distance_HA       
_geom_hbond_distance_DA       
_geom_hbond_angle_DHA         
_geom_hbond_publ_flag         
?   ?   ?   ?   ?   ?   ?   ?   ?   ?   ?
 
#=============================================================================
 
#=============================================================================
# Additional structures (last six sections and associated data_? identifiers) 
# may be added at this point.                                                 
#=============================================================================
 
# The following lines are used to test the character set of files sent by     
# network email or other means. They are not part of the CIF data set.        
# abcdefghijklmnopqrstuvwxyzABCDEFGHIJKLMNOPQRSTUVWXYZ0123456789              
# !@#$%^&*()_+{}:"~<>?|\-=[];'`,./ 
