##############################################################################
###      FullProf-generated CIF output file  (version: May 2011)           ###
###      Template of CIF submission form for structure report              ###
##############################################################################
 
# This file has been generated using FullProf.2k taking one example of 
# structure report provided by Acta Cryst. It is given as a 'template' with 
# filled structural items. Many other items are left unfilled and it is the  
# responsibility of the user to properly fill or suppress them. In principle 
# all question marks '?' should be replaced by the appropriate text or 
# numerical value depending on the kind of CIF item. 
# See the document: cif_core.dic (URL: http://www.iucr.org) for details. 
 
# Please notify any error or suggestion to: 
#           Juan Rodriguez-Carvajal (jrc@ill.eu)
# Improvements will be progressively added as needed.
 
#=============================================================================
 data_global
#=============================================================================
 
# PROCESSING SUMMARY (IUCr Office Use Only)
 
_journal_data_validation_number      ?
 
_journal_date_recd_electronic        ?
_journal_date_to_coeditor            ?
_journal_date_from_coeditor          ?
_journal_date_accepted               ?
_journal_date_printers_first         ?
_journal_date_printers_final         ?
_journal_date_proofs_out             ?
_journal_date_proofs_in              ?
_journal_coeditor_name               ?
_journal_coeditor_code               ?
_journal_coeditor_notes
; ?
;
_journal_techeditor_code             ?
_journal_techeditor_notes
; ?
;
_journal_coden_ASTM                  ?
_journal_name_full                   ?
_journal_year                        ?
_journal_volume                      ?
_journal_issue                       ?
_journal_page_first                  ?
_journal_page_last                   ?
_journal_paper_category              ?
_journal_suppl_publ_number           ?
_journal_suppl_publ_pages            ?
 
#=============================================================================
 
# 
# 1. SUBMISSION DETAILS

_publ_contact_author_name
'Torben R. Jensen' # Name of author for correspondence
_publ_contact_author_address # Address of author for correspondence
;
Aarhus University Langelandsgade
 140 8000 Aarhus C
 Denmark
;
_publ_contact_author_email 'trj@chem.au.dk'
_publ_contact_author_fax '004587154041'
_publ_contact_author_phone '004587155939'

_publ_contact_letter
;
.
;
_publ_requested_journal ?
_publ_requested_coeditor_name ?
_publ_requested_category ? # Acta C: one of CI/CM/CO/FI/FM/FO

# Definition of non standard CIF items (Reliability indices used in FULLPROF)

loop_
_publ_manuscript_incl_extra_item
_publ_manuscript_incl_extra_info
_publ_manuscript_incl_extra_defn
#      Name                               Explanation                 Standard?
#     ------                              -----------                 ---------
 '_pd_proc_ls_prof_cR_factor'    'Prof. R-factor CORRECTED for background'   no
 '_pd_proc_ls_prof_cwR_factor'   'wProf.R-factor CORRECTED for background'   no
 '_pd_proc_ls_prof_cwR_expected' 'wProf.Expected CORRECTED for background'   no
 '_pd_proc_ls_prof_chi2'         'Chi-square for all considered points'      no
 '_pd_proc_ls_prof_echi2'        'Chi-2 for points with Bragg contribution'  no
#=============================================================================
 
# 3. TITLE AND AUTHOR LIST

_publ_section_title
;
'Solid state synthesis, structural characterization and ionic conductivity of
bimetallic alkali-metal yttrium borohydrides MY(BH4)4 (M = Li and Na)'
;
_publ_section_title_footnote
.

# The loop structure below should contain the names and addresses of all
# authors, in the required order of publication. Repeat as necessary.

loop_
_publ_author_name
_publ_author_address
_publ_author_footnote
_publ_author_email
'Roedern, Elsa'
;
Aarhus University Langelandsgade
 140 8000 Aarhus C
 Denmark . roedern@chem.au.dk "

;
'Lee, Young-Su'
;
 High Temperature Energy Materials
 Research Center Korea Institute
 of Science and Technology
 Seoul 136-791 Republic of
 Korea
;
.
.
'Ley, Morten Brix'
;
Aarhus University
 Langelandsgade 140 8000 Aarhus
 C Denmark
;
.
.
'Park, Kiho'
;
High
 Temperature Energy Materials Research
 Center Korea Institute of
 Science and Technology Seoul
 136-791 Republic of Korea

;
.
.
'Cho, Young Whan'
;
High Temperature Energy
 Materials Research Center Korea
 Institute of Science and
 Technology Seoul 136-791 Republic
 of Korea
;
.
.
'Skibsted, Jorgen'
;
Aarhus
 University Langelandsgade 140 8000
 Aarhus C Denmark
;
.
.
'Jensen, Torben R.'
;

 Aarhus University Langelandsgade 140
 8000 Aarhus C Denmark
 . trj@chem.au.dk
;

#=============================================================================
 
# 4. TEXT
 
_publ_section_synopsis
;  ?
;
 
#=============================================================================
 
#=============================================================================
# If more than one structure is reported, the remaining sections should be 
# completed per structure. For each data set, replace the '?' in the
# data_? line below by a unique identifier.
 
data_NaY(BH4)4_Cmcm                  
 
#=============================================================================
 
# 5. CHEMICAL DATA
 
_chemical_name_systematic        'Sodium yttrium tetrahydridoborate'
_chemical_name_common            'Sodium yttrium borohydride'
_chemical_formula_moiety         NaY(BH4)4
_chemical_formula_sum            Na Y B4 H16
_chemical_compound_source        ? # for minerals and 
_chemical_formula_structural     ?
_chemical_formula_analytical     ?
_chemical_formula_iupac          ?
_chemical_formula_weight         171.2667
_chemical_melting_point          ?   
 
loop_
    _atom_type_symbol               
    _atom_type_scat_Cromer_Mann_a1 
    _atom_type_scat_Cromer_Mann_b1 
    _atom_type_scat_Cromer_Mann_a2 
    _atom_type_scat_Cromer_Mann_b2 
    _atom_type_scat_Cromer_Mann_a3 
    _atom_type_scat_Cromer_Mann_b3 
    _atom_type_scat_Cromer_Mann_a4 
    _atom_type_scat_Cromer_Mann_b4 
    _atom_type_scat_Cromer_Mann_c 
    _atom_type_scat_dispersion_real 
    _atom_type_scat_dispersion_imag 
    _atom_type_scat_source          
b      2.05450  23.21850   1.33260   1.02100   1.09790  60.34980
       0.70680   0.14030  -0.19320   0.00000   0.00100
 International_Tables_for_Crystallography_Vol.C(1991)_Tables_6.1.1.4_and_6.1.1.5
h      0.49300  10.51090   0.32291  26.12570   0.14019   3.14236
       0.04081  57.79970   0.00304   0.00000   0.00000
 International_Tables_for_Crystallography_Vol.C(1991)_Tables_6.1.1.4_and_6.1.1.5
na     4.76260   3.28500   3.17360   8.84220   1.26740   0.31360
       1.11280 129.42400   0.67600   0.03000   0.02500
 International_Tables_for_Crystallography_Vol.C(1991)_Tables_6.1.1.4_and_6.1.1.5
y     17.77600   1.40290  10.29460  12.80060   5.72629   0.12560
       3.26588 104.35400   1.91213  -2.95100   3.54200
 International_Tables_for_Crystallography_Vol.C(1991)_Tables_6.1.1.4_and_6.1.1.5
 
#=============================================================================
 
# 6. POWDER SPECIMEN AND CRYSTAL DATA
 
_symmetry_cell_setting                Orthorhombic
_symmetry_space_group_name_H-M       'C m c m'
_symmetry_space_group_name_Hall      '-C 2c 2'
 
loop_
    _symmetry_equiv_pos_as_xyz   #<--must include 'x,y,z'
'x,y,z'
'x,-y,-z'
'-x,y,-z+1/2'
'-x,-y,z+1/2'
'-x,-y,-z'
'-x,y,z'
'x,-y,z+1/2'
'x,y,-z+1/2'
'x+1/2,y+1/2,z'
'x+1/2,-y+1/2,-z'
'-x+1/2,y+1/2,-z+1/2'
'-x+1/2,-y+1/2,z+1/2'
'-x+1/2,-y+1/2,-z'
'-x+1/2,y+1/2,z'
'x+1/2,-y+1/2,z+1/2'
'x+1/2,y+1/2,-z+1/2'
 
_cell_length_a                       8.5262(4)
_cell_length_b                       12.1360(5)
_cell_length_c                       9.0532(4)
_cell_angle_alpha                    90.00000
_cell_angle_beta                     90.00000
_cell_angle_gamma                    90.00000
_cell_volume                         936.77(7)
_cell_formula_units_Z                ?
_cell_measurement_temperature        ?
_cell_special_details
; ?
;
# The next three fields give the specimen dimensions in mm.  The equatorial
# plane contains the incident and diffracted beam.
 
_pd_spec_size_axial               ?       # perpendicular to 
                                          # equatorial plane
_pd_spec_size_equat               ?       # parallel to 
                                          # scattering vector
                                          # in transmission
_pd_spec_size_thick               ?       # parallel to 
                                          # scattering vector
                                          # in reflection
 
# The next five fields are character fields that describe the specimen.
 
_pd_spec_mounting                         # This field should be
                                          # used to give details of the 
                                          # container.
; ?
;
_pd_spec_mount_mode               ?       # options are 'reflection'
                                          # or 'transmission'
_pd_spec_shape                    ?       # options are 'cylinder' 
                                          # 'flat_sheet' or 'irregular'
_pd_char_particle_morphology      ?
_pd_char_colour                   ?       # use ICDD colour descriptions
 
# The following three fields describe the preparation of the specimen.
# The cooling rate is in K/min.  The pressure at which the sample was 
# prepared is in kPa.  The temperature of preparation is in K.        
 
_pd_prep_cool_rate                ?
_pd_prep_pressure                 ?
_pd_prep_temperature              ?
 
# The next four fields are normally only needed for transmission experiments.
 
_exptl_absorpt_coefficient_mu        ?
_exptl_absorpt_correction_type       ?
_exptl_absorpt_process_details       ?
_exptl_absorpt_correction_T_min      ?
_exptl_absorpt_correction_T_max      ?
 
#=============================================================================
 
# 7. EXPERIMENTAL DATA
 
_exptl_special_details
; ?
;
 
# The following item is used to identify the equipment used to record 
# the powder pattern when the diffractogram was measured at a laboratory 
# other than the authors' home institution, e.g. when neutron or synchrotron
# radiation is used.
 
_pd_instr_location
; ?
;
_pd_calibration_special_details           # description of the method used
                                          # to calibrate the instrument
; ?
;
 
_diffrn_radiation_probe          ?
_diffrn_radiation_type           X-ray
_diffrn_radiation_wavelength     0.8258
_diffrn_source                synchrotron 
_diffrn_source_target            ? # Put here the chemical symbol of the anode
 
_diffrn_radiation_monochromator      ?
_diffrn_measurement_device_type      ?
_diffrn_measurement_method           ?
_diffrn_detector_area_resol_mean     ?   # Not in version 2.0.1
_diffrn_detector                     ?
_diffrn_detector_type                ?   # make or model of detector
_pd_meas_scan_method                 ?   # options are 'step', 'cont',
                                         # 'tof', 'fixed' or
                                         # 'disp' (= dispersive)
_pd_meas_special_details
;  ?
;
 
#  The following four items give details of the measured (not processed)
#  powder pattern.  Angles are in degrees.
 
_pd_meas_number_of_points         14995
_pd_meas_2theta_range_min         0.06000
_pd_meas_2theta_range_max         150.00000
_pd_meas_2theta_range_inc         0.010001
 
#=============================================================================
 
# 8. REFINEMENT DATA
 
_refine_special_details
; ?
;
 
# Use the next field to give any special details about the fitting of the
# powder pattern.
 
_pd_proc_ls_special_details
; ?
;
 
# The next three items are given as text.
 
_pd_proc_ls_profile_function      ?
_pd_proc_ls_background_function   ?
_pd_proc_ls_pref_orient_corr
; ?
;
 
#  The following profile R-factors are NOT CORRECTED for background
#  The sum is extended to all non-excluded points.
#  These are the current CIF standard
 
_pd_proc_ls_prof_R_factor                3.4161
_pd_proc_ls_prof_wR_factor               4.8089
_pd_proc_ls_prof_wR_expected             1.8287
 
#  The following profile R-factors are CORRECTED for background
#  The sum is extended to all non-excluded points.
#  These items are not in the current CIF standard, but are defined above
 
_pd_proc_ls_prof_cR_factor               20.9637
_pd_proc_ls_prof_cwR_factor              18.6158
_pd_proc_ls_prof_cwR_expected             7.0790
 
#  The following items are not in the CIF standard, but are defined above
 
_pd_proc_ls_prof_chi2                 6.9154
_pd_proc_ls_prof_echi2                7.2622
 
#  Items related to LS refinement
 
_refine_ls_R_I_factor                 7.7162
_refine_ls_number_reflns                  3491
_refine_ls_number_parameters                23
_refine_ls_number_restraints                 0
 
# The following four items apply to angular dispersive measurements.
# 2theta minimum, maximum and increment (in degrees) are for the 
# intensities used in the refinement.
 
_pd_proc_2theta_range_min                0.0777
_pd_proc_2theta_range_max              150.0177
_pd_proc_2theta_range_inc              0.010001
_pd_proc_wavelength                    0.825770
 
_pd_block_diffractogram_id        ?  # The id used for the block containing
                                     # the powder pattern profile (section 11)
 
# Give appropriate details in the next two text fields.
 
_pd_proc_info_excluded_regions    ?
_pd_proc_info_data_reduction      ?
 
# The following items are used to identify the programs used.
 
_computing_data_collection           ?
_computing_structure_solution        ?
_computing_structure_refinement      FULLPROF
_computing_molecular_graphics        ?
_computing_publication_material      ?
 
#=============================================================================
 
# 9. ATOMIC COORDINATES AND DISPLACEMENT PARAMETERS
 
loop_
    _atom_site_label
    _atom_site_fract_x
    _atom_site_fract_y
    _atom_site_fract_z
    _atom_site_U_iso_or_equiv
    _atom_site_occupancy
    _atom_site_adp_type              # Not in version 2.0.1
    _atom_site_type_symbol
 B1  0.00000  0.76630  0.46960  0.03800  1.00000 Uiso B   
 B2  0.74030  0.03370  0.25000  0.02533  1.00000 Uiso B   
 H11  0.00000  0.82190  0.57960  0.10132  1.00000 Uiso H   
 H12  0.00000  0.66780  0.50400  0.10132  1.00000 Uiso H   
 H13  0.61710  0.28260  0.39180  0.10132  0.50000 Uiso H   
 H21  0.35990  0.48010  0.25000  0.10132  1.00000 Uiso H   
 H22  0.76830  0.13350  0.25000  0.10132  1.00000 Uiso H   
 H23  0.65950  0.01300  0.35970  0.10132  0.50000 Uiso H   
 Na1  0.00000  0.00000  0.00000  0.02533  2.00000 Uiso Na  
 Y1  0.00000  0.64800  0.25000  0.01267  2.00000 Uiso Y   
 
# Note: if the displacement parameters were refined anisotropically
# the U matrices should be given as for single-crystal studies.
 
#=============================================================================
 
# 10. DISTANCES AND ANGLES / MOLECULAR GEOMETRY 
 
_geom_special_details                ?
 
loop_
    _geom_bond_atom_site_label_1  
    _geom_bond_atom_site_label_2  
    _geom_bond_site_symmetry_1    
    _geom_bond_site_symmetry_2    
    _geom_bond_distance           
    _geom_bond_publ_flag          
    ?   ?   ?   ?   ?   ?
 
loop_
    _geom_contact_atom_site_label_1 
    _geom_contact_atom_site_label_2 
    _geom_contact_distance          
    _geom_contact_site_symmetry_1   
    _geom_contact_site_symmetry_2   
    _geom_contact_publ_flag         
    ?   ?   ?   ?   ?   ?
 
loop_
_geom_angle_atom_site_label_1 
_geom_angle_atom_site_label_2 
_geom_angle_atom_site_label_3 
_geom_angle_site_symmetry_1   
_geom_angle_site_symmetry_2   
_geom_angle_site_symmetry_3   
_geom_angle                   
_geom_angle_publ_flag         
?   ?   ?   ?   ?   ?   ?   ?
 
loop_
_geom_torsion_atom_site_label_1 
_geom_torsion_atom_site_label_2 
_geom_torsion_atom_site_label_3 
_geom_torsion_atom_site_label_4 
_geom_torsion_site_symmetry_1   
_geom_torsion_site_symmetry_2   
_geom_torsion_site_symmetry_3   
_geom_torsion_site_symmetry_4   
_geom_torsion                   
_geom_torsion_publ_flag         
?   ?   ?   ?   ?   ?   ?   ?   ?   ?
 
loop_
_geom_hbond_atom_site_label_D 
_geom_hbond_atom_site_label_H 
_geom_hbond_atom_site_label_A 
_geom_hbond_site_symmetry_D   
_geom_hbond_site_symmetry_H   
_geom_hbond_site_symmetry_A   
_geom_hbond_distance_DH       
_geom_hbond_distance_HA       
_geom_hbond_distance_DA       
_geom_hbond_angle_DHA         
_geom_hbond_publ_flag         
?   ?   ?   ?   ?   ?   ?   ?   ?   ?   ?
 
#=============================================================================
 
#=============================================================================
# Additional structures (last six sections and associated data_? identifiers) 
# may be added at this point.                                                 
#=============================================================================
 
data_SodiumTetrahydridoborateA
 
#=============================================================================
 
# 5. CHEMICAL DATA
 
_chemical_name_systematic        'Sodium tetrahydridoborate'
_chemical_name_common            'Sodium borohydride'
_chemical_formula_moiety         NaBH4
_chemical_formula_sum            NaBH4
_chemical_properties_physical    
'air-sensitive, moisture-sensitive, hygroscopic'
_chemical_formula_structural     ?
_chemical_formula_analytical     ?
_chemical_formula_iupac          ?
_chemical_formula_weight         37.8325
 
loop_
    _atom_type_symbol               
    _atom_type_scat_Cromer_Mann_a1 
    _atom_type_scat_Cromer_Mann_b1 
    _atom_type_scat_Cromer_Mann_a2 
    _atom_type_scat_Cromer_Mann_b2 
    _atom_type_scat_Cromer_Mann_a3 
    _atom_type_scat_Cromer_Mann_b3 
    _atom_type_scat_Cromer_Mann_a4 
    _atom_type_scat_Cromer_Mann_b4 
    _atom_type_scat_Cromer_Mann_c 
    _atom_type_scat_dispersion_real 
    _atom_type_scat_dispersion_imag 
    _atom_type_scat_source          
 
#=============================================================================
 
# 6. POWDER SPECIMEN AND CRYSTAL DATA
 
_symmetry_cell_setting                Cubic
_symmetry_space_group_name_H-M       'F m -3 m'
_symmetry_space_group_name_Hall      '-F 4 2 3'
 
loop_
    _symmetry_equiv_pos_as_xyz   #<--must include 'x,y,z'
'x,y,z'
'x,-y,-z'
'-x,y,-z'
'-x,-y,z'
'y,z,x'
'-y,-z,x'
'y,-z,-x'
'-y,z,-x'
'z,x,y'
'-z,x,-y'
'-z,-x,y'
'z,-x,-y'
'y,x,z'
'-y,x,-z'
'y,-x,-z'
'-y,-x,z'
'z,y,x'
'-z,-y,x'
'-z,y,-x'
'z,-y,-x'
'x,z,y'
'x,-z,-y'
'-x,-z,y'
'-x,z,-y'
'-x,-y,-z'
'-x,y,z'
'x,-y,z'
'x,y,-z'
'-y,-z,-x'
'y,z,-x'
'-y,z,x'
'y,-z,x'
'-z,-x,-y'
'z,-x,y'
'z,x,-y'
'-z,x,y'
'-y,-x,-z'
'y,-x,z'
'-y,x,z'
'y,x,-z'
'-z,-y,-x'
'z,y,-x'
'z,-y,x'
'-z,y,x'
'-x,-z,-y'
'-x,z,y'
'x,z,-y'
'x,-z,y'
'x+1/2,y+1/2,z'
'x+1/2,-y+1/2,-z'
'-x+1/2,y+1/2,-z'
'-x+1/2,-y+1/2,z'
'y+1/2,z+1/2,x'
'-y+1/2,-z+1/2,x'
'y+1/2,-z+1/2,-x'
'-y+1/2,z+1/2,-x'
'z+1/2,x+1/2,y'
'-z+1/2,x+1/2,-y'
'-z+1/2,-x+1/2,y'
'z+1/2,-x+1/2,-y'
'y+1/2,x+1/2,z'
'-y+1/2,x+1/2,-z'
'y+1/2,-x+1/2,-z'
'-y+1/2,-x+1/2,z'
'z+1/2,y+1/2,x'
'-z+1/2,-y+1/2,x'
'-z+1/2,y+1/2,-x'
'z+1/2,-y+1/2,-x'
'x+1/2,z+1/2,y'
'x+1/2,-z+1/2,-y'
'-x+1/2,-z+1/2,y'
'-x+1/2,z+1/2,-y'
'-x+1/2,-y+1/2,-z'
'-x+1/2,y+1/2,z'
'x+1/2,-y+1/2,z'
'x+1/2,y+1/2,-z'
'-y+1/2,-z+1/2,-x'
'y+1/2,z+1/2,-x'
'-y+1/2,z+1/2,x'
'y+1/2,-z+1/2,x'
'-z+1/2,-x+1/2,-y'
'z+1/2,-x+1/2,y'
'z+1/2,x+1/2,-y'
'-z+1/2,x+1/2,y'
'-y+1/2,-x+1/2,-z'
'y+1/2,-x+1/2,z'
'-y+1/2,x+1/2,z'
'y+1/2,x+1/2,-z'
'-z+1/2,-y+1/2,-x'
'z+1/2,y+1/2,-x'
'z+1/2,-y+1/2,x'
'-z+1/2,y+1/2,x'
'-x+1/2,-z+1/2,-y'
'-x+1/2,z+1/2,y'
'x+1/2,z+1/2,-y'
'x+1/2,-z+1/2,y'
'x+1/2,y,z+1/2'
'x+1/2,-y,-z+1/2'
'-x+1/2,y,-z+1/2'
'-x+1/2,-y,z+1/2'
'y+1/2,z,x+1/2'
'-y+1/2,-z,x+1/2'
'y+1/2,-z,-x+1/2'
'-y+1/2,z,-x+1/2'
'z+1/2,x,y+1/2'
'-z+1/2,x,-y+1/2'
'-z+1/2,-x,y+1/2'
'z+1/2,-x,-y+1/2'
'y+1/2,x,z+1/2'
'-y+1/2,x,-z+1/2'
'y+1/2,-x,-z+1/2'
'-y+1/2,-x,z+1/2'
'z+1/2,y,x+1/2'
'-z+1/2,-y,x+1/2'
'-z+1/2,y,-x+1/2'
'z+1/2,-y,-x+1/2'
'x+1/2,z,y+1/2'
'x+1/2,-z,-y+1/2'
'-x+1/2,-z,y+1/2'
'-x+1/2,z,-y+1/2'
'-x+1/2,-y,-z+1/2'
'-x+1/2,y,z+1/2'
'x+1/2,-y,z+1/2'
'x+1/2,y,-z+1/2'
'-y+1/2,-z,-x+1/2'
'y+1/2,z,-x+1/2'
'-y+1/2,z,x+1/2'
'y+1/2,-z,x+1/2'
'-z+1/2,-x,-y+1/2'
'z+1/2,-x,y+1/2'
'z+1/2,x,-y+1/2'
'-z+1/2,x,y+1/2'
'-y+1/2,-x,-z+1/2'
'y+1/2,-x,z+1/2'
'-y+1/2,x,z+1/2'
'y+1/2,x,-z+1/2'
'-z+1/2,-y,-x+1/2'
'z+1/2,y,-x+1/2'
'z+1/2,-y,x+1/2'
'-z+1/2,y,x+1/2'
'-x+1/2,-z,-y+1/2'
'-x+1/2,z,y+1/2'
'x+1/2,z,-y+1/2'
'x+1/2,-z,y+1/2'
'x,y+1/2,z+1/2'
'x,-y+1/2,-z+1/2'
'-x,y+1/2,-z+1/2'
'-x,-y+1/2,z+1/2'
'y,z+1/2,x+1/2'
'-y,-z+1/2,x+1/2'
'y,-z+1/2,-x+1/2'
'-y,z+1/2,-x+1/2'
'z,x+1/2,y+1/2'
'-z,x+1/2,-y+1/2'
'-z,-x+1/2,y+1/2'
'z,-x+1/2,-y+1/2'
'y,x+1/2,z+1/2'
'-y,x+1/2,-z+1/2'
'y,-x+1/2,-z+1/2'
'-y,-x+1/2,z+1/2'
'z,y+1/2,x+1/2'
'-z,-y+1/2,x+1/2'
'-z,y+1/2,-x+1/2'
'z,-y+1/2,-x+1/2'
'x,z+1/2,y+1/2'
'x,-z+1/2,-y+1/2'
'-x,-z+1/2,y+1/2'
'-x,z+1/2,-y+1/2'
'-x,-y+1/2,-z+1/2'
'-x,y+1/2,z+1/2'
'x,-y+1/2,z+1/2'
'x,y+1/2,-z+1/2'
'-y,-z+1/2,-x+1/2'
'y,z+1/2,-x+1/2'
'-y,z+1/2,x+1/2'
'y,-z+1/2,x+1/2'
'-z,-x+1/2,-y+1/2'
'z,-x+1/2,y+1/2'
'z,x+1/2,-y+1/2'
'-z,x+1/2,y+1/2'
'-y,-x+1/2,-z+1/2'
'y,-x+1/2,z+1/2'
'-y,x+1/2,z+1/2'
'y,x+1/2,-z+1/2'
'-z,-y+1/2,-x+1/2'
'z,y+1/2,-x+1/2'
'z,-y+1/2,x+1/2'
'-z,y+1/2,x+1/2'
'-x,-z+1/2,-y+1/2'
'-x,z+1/2,y+1/2'
'x,z+1/2,-y+1/2'
'x,-z+1/2,y+1/2'
 
_cell_length_a                       6.14527(14)
_cell_length_b                       6.14527(14)
_cell_length_c                       6.14527(14)
_cell_angle_alpha                    90.00000
_cell_angle_beta                     90.00000
_cell_angle_gamma                    90.00000
_cell_volume                         232.073(9)
_cell_formula_units_Z                ?
_cell_measurement_temperature        ?
_cell_special_details
; ?
;
# The next three fields give the specimen dimensions in mm.  The equatorial
# plane contains the incident and diffracted beam.
 
_pd_spec_size_axial               ?       # perpendicular to 
                                          # equatorial plane
_pd_spec_size_equat               ?       # parallel to 
                                          # scattering vector
                                          # in transmission
_pd_spec_size_thick               ?       # parallel to 
                                          # scattering vector
                                          # in reflection
 
# The next five fields are character fields that describe the specimen.
 
_pd_spec_mounting                         # This field should be
                                          # used to give details of the 
                                          # container.
; ?
;
_pd_spec_mount_mode               ?       # options are 'reflection'
                                          # or 'transmission'
_pd_spec_shape                    ?       # options are 'cylinder' 
                                          # 'flat_sheet' or 'irregular'
_pd_char_particle_morphology      ?
_pd_char_colour                   ?       # use ICDD colour descriptions
 
# The following three fields describe the preparation of the specimen.
# The cooling rate is in K/min.  The pressure at which the sample was 
# prepared is in kPa.  The temperature of preparation is in K.        
 
_pd_prep_cool_rate                ?
_pd_prep_pressure                 ?
_pd_prep_temperature              ?
 
# The next four fields are normally only needed for transmission experiments.
 
_exptl_absorpt_coefficient_mu        ?
_exptl_absorpt_correction_type       ?
_exptl_absorpt_process_details       ?
_exptl_absorpt_correction_T_min      ?
_exptl_absorpt_correction_T_max      ?
 
#=============================================================================
 
# 7. EXPERIMENTAL DATA
 
_exptl_special_details
; ?
;
 
# The following item is used to identify the equipment used to record 
# the powder pattern when the diffractogram was measured at a laboratory 
# other than the authors' home institution, e.g. when neutron or synchrotron
# radiation is used.
 
_pd_instr_location
; ?
;
_pd_calibration_special_details           # description of the method used
                                          # to calibrate the instrument
; ?
;
 
_diffrn_radiation_probe          ?
_diffrn_radiation_type           X-ray
_diffrn_radiation_wavelength     0.8258
_diffrn_source                 synchrotron
_diffrn_source_target            ? # Put here the chemical symbol of the anode
 
_diffrn_radiation_monochromator      ?
_diffrn_measurement_device_type      ?
_diffrn_measurement_method           ?
_diffrn_detector_area_resol_mean     ?   # Not in version 2.0.1
_diffrn_detector                     ?
_diffrn_detector_type                ?   # make or model of detector
_pd_meas_scan_method                 ?   # options are 'step', 'cont',
                                         # 'tof', 'fixed' or
                                         # 'disp' (= dispersive)
_pd_meas_special_details
;  ?
;
 
#  The following four items give details of the measured (not processed)
#  powder pattern.  Angles are in degrees.
 
_pd_meas_number_of_points         0
_pd_meas_2theta_range_min         0.06000
_pd_meas_2theta_range_max         150.00000
_pd_meas_2theta_range_inc         0.010001
 
#=============================================================================
 
# 8. REFINEMENT DATA
 
_refine_special_details
; ?
;
 
# Use the next field to give any special details about the fitting of the
# powder pattern.
 
_pd_proc_ls_special_details
; ?
;
 
# The next three items are given as text.
 
_pd_proc_ls_profile_function      ?
_pd_proc_ls_background_function   ?
_pd_proc_ls_pref_orient_corr
; ?
;
 
#  The following profile R-factors are NOT CORRECTED for background
#  The sum is extended to all non-excluded points.
#  These are the current CIF standard
 
_pd_proc_ls_prof_R_factor                3.4161
_pd_proc_ls_prof_wR_factor               4.8089
_pd_proc_ls_prof_wR_expected             1.8287
 
#  The following profile R-factors are CORRECTED for background
#  The sum is extended to all non-excluded points.
#  These items are not in the current CIF standard, but are defined above
 
_pd_proc_ls_prof_cR_factor               20.9637
_pd_proc_ls_prof_cwR_factor              18.6158
_pd_proc_ls_prof_cwR_expected             7.0790
 
#  The following items are not in the CIF standard, but are defined above
 
_pd_proc_ls_prof_chi2                 6.9154
_pd_proc_ls_prof_echi2                7.2622
 
#  Items related to LS refinement
 
_refine_ls_R_I_factor                12.2457
_refine_ls_number_reflns                   111
_refine_ls_number_parameters                23
_refine_ls_number_restraints                 0
 
# The following four items apply to angular dispersive measurements.
# 2theta minimum, maximum and increment (in degrees) are for the 
# intensities used in the refinement.
 
_pd_proc_2theta_range_min                0.0777
_pd_proc_2theta_range_max              150.0177
_pd_proc_2theta_range_inc              0.010001
_pd_proc_wavelength                    0.825770
 
_pd_block_diffractogram_id        ?  # The id used for the block containing
                                     # the powder pattern profile (section 11)
 
# Give appropriate details in the next two text fields.
 
_pd_proc_info_excluded_regions    ?
_pd_proc_info_data_reduction      ?
 
# The following items are used to identify the programs used.
 
_computing_data_collection           ?
_computing_structure_solution        ?
_computing_structure_refinement      FULLPROF
_computing_molecular_graphics        ?
_computing_publication_material      ?
 
#=============================================================================
 
# 9. ATOMIC COORDINATES AND DISPLACEMENT PARAMETERS
 
loop_
    _atom_site_label
    _atom_site_fract_x
    _atom_site_fract_y
    _atom_site_fract_z
    _atom_site_U_iso_or_equiv
    _atom_site_occupancy
    _atom_site_adp_type              # Not in version 2.0.1
    _atom_site_type_symbol
 Na1  0.00000  0.00000  0.00000  0.00000  1.00000 Uiso Na  
 B1  0.50000  0.50000  0.50000  0.00000  1.00000 Uiso B   
 H1  0.39010  0.39010  0.39010  0.00000  1.00018 Uiso H   
 
# Note: if the displacement parameters were refined anisotropically
# the U matrices should be given as for single-crystal studies.
 
#=============================================================================
 
# 10. DISTANCES AND ANGLES / MOLECULAR GEOMETRY 
 
_geom_special_details                ?
 
loop_
    _geom_bond_atom_site_label_1  
    _geom_bond_atom_site_label_2  
    _geom_bond_site_symmetry_1    
    _geom_bond_site_symmetry_2    
    _geom_bond_distance           
    _geom_bond_publ_flag          
    ?   ?   ?   ?   ?   ?
 
loop_
    _geom_contact_atom_site_label_1 
    _geom_contact_atom_site_label_2 
    _geom_contact_distance          
    _geom_contact_site_symmetry_1   
    _geom_contact_site_symmetry_2   
    _geom_contact_publ_flag         
    ?   ?   ?   ?   ?   ?
 
loop_
_geom_angle_atom_site_label_1 
_geom_angle_atom_site_label_2 
_geom_angle_atom_site_label_3 
_geom_angle_site_symmetry_1   
_geom_angle_site_symmetry_2   
_geom_angle_site_symmetry_3   
_geom_angle                   
_geom_angle_publ_flag         
?   ?   ?   ?   ?   ?   ?   ?
 
loop_
_geom_torsion_atom_site_label_1 
_geom_torsion_atom_site_label_2 
_geom_torsion_atom_site_label_3 
_geom_torsion_atom_site_label_4 
_geom_torsion_site_symmetry_1   
_geom_torsion_site_symmetry_2   
_geom_torsion_site_symmetry_3   
_geom_torsion_site_symmetry_4   
_geom_torsion                   
_geom_torsion_publ_flag         
?   ?   ?   ?   ?   ?   ?   ?   ?   ?
 
loop_
_geom_hbond_atom_site_label_D 
_geom_hbond_atom_site_label_H 
_geom_hbond_atom_site_label_A 
_geom_hbond_site_symmetry_D   
_geom_hbond_site_symmetry_H   
_geom_hbond_site_symmetry_A   
_geom_hbond_distance_DH       
_geom_hbond_distance_HA       
_geom_hbond_distance_DA       
_geom_hbond_angle_DHA         
_geom_hbond_publ_flag         
?   ?   ?   ?   ?   ?   ?   ?   ?   ?   ?
 
#=============================================================================
 
#=============================================================================
# Additional structures (last six sections and associated data_? identifiers) 
# may be added at this point.                                                 
#=============================================================================
 
data_Y(BH4)3
 
#=============================================================================
 
# 5. CHEMICAL DATA
 
_chemical_name_systematic        'Yttrium tetrahydridoborate'
_chemical_name_common            'Yttrium borohydride'
_chemical_formula_moiety         'Y (BH4)3'
_chemical_formula_sum            'Y B3 H12'
_chemical_compound_source        ? # for minerals and 
_chemical_properties_physical    
'air-sensitive, moisture-sensitive, hygroscopic'
_chemical_formula_structural     Y(BH4)3
_chemical_formula_analytical     Y(BH4)3
_chemical_formula_iupac          Y(BH4)3
_chemical_formula_weight         133.4341
 
loop_
    _atom_type_symbol               
    _atom_type_scat_Cromer_Mann_a1 
    _atom_type_scat_Cromer_Mann_b1 
    _atom_type_scat_Cromer_Mann_a2 
    _atom_type_scat_Cromer_Mann_b2 
    _atom_type_scat_Cromer_Mann_a3 
    _atom_type_scat_Cromer_Mann_b3 
    _atom_type_scat_Cromer_Mann_a4 
    _atom_type_scat_Cromer_Mann_b4 
    _atom_type_scat_Cromer_Mann_c 
    _atom_type_scat_dispersion_real 
    _atom_type_scat_dispersion_imag 
    _atom_type_scat_source          
 
#=============================================================================
 
# 6. POWDER SPECIMEN AND CRYSTAL DATA
 
_symmetry_cell_setting                Cubic
_symmetry_space_group_name_H-M       'P a -3'
_symmetry_space_group_name_Hall      '-P 2ac 2ab 3'
 
loop_
    _symmetry_equiv_pos_as_xyz   #<--must include 'x,y,z'
'x,y,z'
'x+1/2,-y+1/2,-z'
'-x,y+1/2,-z+1/2'
'-x+1/2,-y,z+1/2'
'y,z,x'
'-y+1/2,-z,x+1/2'
'y+1/2,-z+1/2,-x'
'-y,z+1/2,-x+1/2'
'z,x,y'
'-z,x+1/2,-y+1/2'
'-z+1/2,-x,y+1/2'
'z+1/2,-x+1/2,-y'
'-x,-y,-z'
'-x+1/2,y+1/2,z'
'x,-y+1/2,z+1/2'
'x+1/2,y,-z+1/2'
'-y,-z,-x'
'y+1/2,z,-x+1/2'
'-y+1/2,z+1/2,x'
'y,-z+1/2,x+1/2'
'-z,-x,-y'
'z,-x+1/2,y+1/2'
'z+1/2,x,-y+1/2'
'-z+1/2,x+1/2,y'
 
_cell_length_a                       10.8598(6)
_cell_length_b                       10.8598(6)
_cell_length_c                       10.8598(6)
_cell_angle_alpha                    90.00000
_cell_angle_beta                     90.00000
_cell_angle_gamma                    90.00000
_cell_volume                         1280.75(13)
_cell_formula_units_Z                ?
_cell_measurement_temperature        ?
_cell_special_details
; ?
;
# The next three fields give the specimen dimensions in mm.  The equatorial
# plane contains the incident and diffracted beam.
 
_pd_spec_size_axial               ?       # perpendicular to 
                                          # equatorial plane
_pd_spec_size_equat               ?       # parallel to 
                                          # scattering vector
                                          # in transmission
_pd_spec_size_thick               ?       # parallel to 
                                          # scattering vector
                                          # in reflection
 
# The next five fields are character fields that describe the specimen.
 
_pd_spec_mounting                         # This field should be
                                          # used to give details of the 
                                          # container.
; ?
;
_pd_spec_mount_mode               ?       # options are 'reflection'
                                          # or 'transmission'
_pd_spec_shape                    ?       # options are 'cylinder' 
                                          # 'flat_sheet' or 'irregular'
_pd_char_particle_morphology      ?
_pd_char_colour                   ?       # use ICDD colour descriptions
 
# The following three fields describe the preparation of the specimen.
# The cooling rate is in K/min.  The pressure at which the sample was 
# prepared is in kPa.  The temperature of preparation is in K.        
 
_pd_prep_cool_rate                ?
_pd_prep_pressure                 ?
_pd_prep_temperature              ?
 
# The next four fields are normally only needed for transmission experiments.
 
_exptl_absorpt_coefficient_mu        ?
_exptl_absorpt_correction_type       ?
_exptl_absorpt_process_details       ?
_exptl_absorpt_correction_T_min      ?
_exptl_absorpt_correction_T_max      ?
 
#=============================================================================
 
# 7. EXPERIMENTAL DATA
 
_exptl_special_details
; ?
;
 
# The following item is used to identify the equipment used to record 
# the powder pattern when the diffractogram was measured at a laboratory 
# other than the authors' home institution, e.g. when neutron or synchrotron
# radiation is used.
 
_pd_instr_location
; ?
;
_pd_calibration_special_details           # description of the method used
                                          # to calibrate the instrument
; ?
;
 
_diffrn_radiation_probe          ?
_diffrn_radiation_type           X-ray
_diffrn_radiation_wavelength     0.8258
_diffrn_source                   
? # Put here: 'rotating-anode X-ray tube' or similar 
_diffrn_source_target            ? # Put here the chemical symbol of the anode
 
_diffrn_radiation_monochromator      ?
_diffrn_measurement_device_type      ?
_diffrn_measurement_method           ?
_diffrn_detector_area_resol_mean     ?   # Not in version 2.0.1
_diffrn_detector                     ?
_diffrn_detector_type                ?   # make or model of detector
_pd_meas_scan_method                 ?   # options are 'step', 'cont',
                                         # 'tof', 'fixed' or
                                         # 'disp' (= dispersive)
_pd_meas_special_details
;  ?
;
 
#  The following four items give details of the measured (not processed)
#  powder pattern.  Angles are in degrees.
 
_pd_meas_number_of_points         0
_pd_meas_2theta_range_min         0.06000
_pd_meas_2theta_range_max         150.00000
_pd_meas_2theta_range_inc         0.010001
 
#=============================================================================
 
# 8. REFINEMENT DATA
 
_refine_special_details
; ?
;
 
# Use the next field to give any special details about the fitting of the
# powder pattern.
 
_pd_proc_ls_special_details
; ?
;
 
# The next three items are given as text.
 
_pd_proc_ls_profile_function      ?
_pd_proc_ls_background_function   ?
_pd_proc_ls_pref_orient_corr
; ?
;
 
#  The following profile R-factors are NOT CORRECTED for background
#  The sum is extended to all non-excluded points.
#  These are the current CIF standard
 
_pd_proc_ls_prof_R_factor                3.4161
_pd_proc_ls_prof_wR_factor               4.8089
_pd_proc_ls_prof_wR_expected             1.8287
 
#  The following profile R-factors are CORRECTED for background
#  The sum is extended to all non-excluded points.
#  These items are not in the current CIF standard, but are defined above
 
_pd_proc_ls_prof_cR_factor               20.9637
_pd_proc_ls_prof_cwR_factor              18.6158
_pd_proc_ls_prof_cwR_expected             7.0790
 
#  The following items are not in the CIF standard, but are defined above
 
_pd_proc_ls_prof_chi2                 6.9154
_pd_proc_ls_prof_echi2                7.2622
 
#  Items related to LS refinement
 
_refine_ls_R_I_factor                 7.2582
_refine_ls_number_reflns                  2980
_refine_ls_number_parameters                23
_refine_ls_number_restraints                 0
 
# The following four items apply to angular dispersive measurements.
# 2theta minimum, maximum and increment (in degrees) are for the 
# intensities used in the refinement.
 
_pd_proc_2theta_range_min                0.0777
_pd_proc_2theta_range_max              150.0177
_pd_proc_2theta_range_inc              0.010001
_pd_proc_wavelength                    0.825770
 
_pd_block_diffractogram_id        ?  # The id used for the block containing
                                     # the powder pattern profile (section 11)
 
# Give appropriate details in the next two text fields.
 
_pd_proc_info_excluded_regions    ?
_pd_proc_info_data_reduction      ?
 
# The following items are used to identify the programs used.
 
_computing_data_collection           ?
_computing_structure_solution        ?
_computing_structure_refinement      FULLPROF
_computing_molecular_graphics        ?
_computing_publication_material      ?
 
#=============================================================================
 
# 9. ATOMIC COORDINATES AND DISPLACEMENT PARAMETERS
 
loop_
    _atom_site_label
    _atom_site_fract_x
    _atom_site_fract_y
    _atom_site_fract_z
    _atom_site_U_iso_or_equiv
    _atom_site_occupancy
    _atom_site_adp_type              # Not in version 2.0.1
    _atom_site_type_symbol
 Y1  0.21790  0.21790  0.21790  0.01267  1.00000 Uiso Y   
 B1  0.19300  0.24730  0.96820  0.03800  1.00001 Uiso B   
 H1  0.29090  0.25340  0.02430  0.10132  1.00001 Uiso H   
 H2  0.10430  0.22570  0.03510  0.10132  1.00001 Uiso H   
 H3  0.17520  0.34750  0.91920  0.10132  1.00001 Uiso H   
 H4  0.20140  0.16230  0.89420  0.10132  1.00001 Uiso H   
 
# Note: if the displacement parameters were refined anisotropically
# the U matrices should be given as for single-crystal studies.
 
#=============================================================================
 
# 10. DISTANCES AND ANGLES / MOLECULAR GEOMETRY 
 
_geom_special_details                ?
 
loop_
    _geom_bond_atom_site_label_1  
    _geom_bond_atom_site_label_2  
    _geom_bond_site_symmetry_1    
    _geom_bond_site_symmetry_2    
    _geom_bond_distance           
    _geom_bond_publ_flag          
    ?   ?   ?   ?   ?   ?
 
loop_
    _geom_contact_atom_site_label_1 
    _geom_contact_atom_site_label_2 
    _geom_contact_distance          
    _geom_contact_site_symmetry_1   
    _geom_contact_site_symmetry_2   
    _geom_contact_publ_flag         
    ?   ?   ?   ?   ?   ?
 
loop_
_geom_angle_atom_site_label_1 
_geom_angle_atom_site_label_2 
_geom_angle_atom_site_label_3 
_geom_angle_site_symmetry_1   
_geom_angle_site_symmetry_2   
_geom_angle_site_symmetry_3   
_geom_angle                   
_geom_angle_publ_flag         
?   ?   ?   ?   ?   ?   ?   ?
 
loop_
_geom_torsion_atom_site_label_1 
_geom_torsion_atom_site_label_2 
_geom_torsion_atom_site_label_3 
_geom_torsion_atom_site_label_4 
_geom_torsion_site_symmetry_1   
_geom_torsion_site_symmetry_2   
_geom_torsion_site_symmetry_3   
_geom_torsion_site_symmetry_4   
_geom_torsion                   
_geom_torsion_publ_flag         
?   ?   ?   ?   ?   ?   ?   ?   ?   ?
 
loop_
_geom_hbond_atom_site_label_D 
_geom_hbond_atom_site_label_H 
_geom_hbond_atom_site_label_A 
_geom_hbond_site_symmetry_D   
_geom_hbond_site_symmetry_H   
_geom_hbond_site_symmetry_A   
_geom_hbond_distance_DH       
_geom_hbond_distance_HA       
_geom_hbond_distance_DA       
_geom_hbond_angle_DHA         
_geom_hbond_publ_flag         
?   ?   ?   ?   ?   ?   ?   ?   ?   ?   ?
 
#=============================================================================
 
#=============================================================================
# Additional structures (last six sections and associated data_? identifiers) 
# may be added at this point.                                                 
#=============================================================================
 
# The following lines are used to test the character set of files sent by     
# network email or other means. They are not part of the CIF data set.        
# abcdefghijklmnopqrstuvwxyzABCDEFGHIJKLMNOPQRSTUVWXYZ0123456789              
# !@#$%^&*()_+{}:"~<>?|\-=[];'`,./ 
